 Entering Gaussian System, Link 0=g16
 Input=AcCl-NaN3_ts.gjf
 Output=AcCl-NaN3_ts.out
 Initial command:
 /n/sw/g16_nehalem/g16/l1.exe "/scratch/Gau-40450.inp" -scrdir="/scratch/"
 Entering Link 1 = /n/sw/g16_nehalem/g16/l1.exe PID=     40452.
  
 Copyright (c) 1988,1990,1992,1993,1995,1998,2003,2009,2016,
            Gaussian, Inc.  All Rights Reserved.
  
 This is part of the Gaussian(R) 16 program.  It is based on
 the Gaussian(R) 09 system (copyright 2009, Gaussian, Inc.),
 the Gaussian(R) 03 system (copyright 2003, Gaussian, Inc.),
 the Gaussian(R) 98 system (copyright 1998, Gaussian, Inc.),
 the Gaussian(R) 94 system (copyright 1995, Gaussian, Inc.),
 the Gaussian 92(TM) system (copyright 1992, Gaussian, Inc.),
 the Gaussian 90(TM) system (copyright 1990, Gaussian, Inc.),
 the Gaussian 88(TM) system (copyright 1988, Gaussian, Inc.),
 the Gaussian 86(TM) system (copyright 1986, Carnegie Mellon
 University), and the Gaussian 82(TM) system (copyright 1983,
 Carnegie Mellon University). Gaussian is a federally registered
 trademark of Gaussian, Inc.
  
 This software contains proprietary and confidential information,
 including trade secrets, belonging to Gaussian, Inc.
  
 This software is provided under written license and may be
 used, copied, transmitted, or stored only in accord with that
 written license.
  
 The following legend is applicable only to US Government
 contracts under FAR:
  
                    RESTRICTED RIGHTS LEGEND
  
 Use, reproduction and disclosure by the US Government is
 subject to restrictions as set forth in subparagraphs (a)
 and (c) of the Commercial Computer Software - Restricted
 Rights clause in FAR 52.227-19.
  
 Gaussian, Inc.
 340 Quinnipiac St., Bldg. 40, Wallingford CT 06492
  
  
 ---------------------------------------------------------------
 Warning -- This program may not be used in any manner that
 competes with the business of Gaussian, Inc. or will provide
 assistance to any competitor of Gaussian, Inc.  The licensee
 of this program is prohibited from giving any competitor of
 Gaussian, Inc. access to this program.  By using this program,
 the user acknowledges that Gaussian, Inc. is engaged in the
 business of creating and licensing software in the field of
 computational chemistry and represents and warrants to the
 licensee that it is not a competitor of Gaussian, Inc. and that
 it will not use this program in any manner prohibited above.
 ---------------------------------------------------------------
  

 Cite this work as:
 Gaussian 16, Revision A.03,
 M. J. Frisch, G. W. Trucks, H. B. Schlegel, G. E. Scuseria, 
 M. A. Robb, J. R. Cheeseman, G. Scalmani, V. Barone, 
 G. A. Petersson, H. Nakatsuji, X. Li, M. Caricato, A. V. Marenich, 
 J. Bloino, B. G. Janesko, R. Gomperts, B. Mennucci, H. P. Hratchian, 
 J. V. Ortiz, A. F. Izmaylov, J. L. Sonnenberg, D. Williams-Young, 
 F. Ding, F. Lipparini, F. Egidi, J. Goings, B. Peng, A. Petrone, 
 T. Henderson, D. Ranasinghe, V. G. Zakrzewski, J. Gao, N. Rega, 
 G. Zheng, W. Liang, M. Hada, M. Ehara, K. Toyota, R. Fukuda, 
 J. Hasegawa, M. Ishida, T. Nakajima, Y. Honda, O. Kitao, H. Nakai, 
 T. Vreven, K. Throssell, J. A. Montgomery, Jr., J. E. Peralta, 
 F. Ogliaro, M. J. Bearpark, J. J. Heyd, E. N. Brothers, K. N. Kudin, 
 V. N. Staroverov, T. A. Keith, R. Kobayashi, J. Normand, 
 K. Raghavachari, A. P. Rendell, J. C. Burant, S. S. Iyengar, 
 J. Tomasi, M. Cossi, J. M. Millam, M. Klene, C. Adamo, R. Cammi, 
 J. W. Ochterski, R. L. Martin, K. Morokuma, O. Farkas, 
 J. B. Foresman, and D. J. Fox, Gaussian, Inc., Wallingford CT, 2016.
 
 ******************************************
 Gaussian 16:  ES64L-G16RevA.03 25-Dec-2016
                27-Oct-2020 
 ******************************************
 %nprocshared=16
 Will use up to   16 processors via shared memory.
 %mem=32GB
 ----------------------------------------------------------------------
 #p opt=(calcfc,ts,noeigentest,maxstep=5) freq=noraman b3lyp/6-31g(d) e
 mpiricaldispersion=gd3bj
 ----------------------------------------------------------------------
 1/5=1,8=5,10=4,11=1,18=20,26=3,38=1/1,3;
 2/9=110,12=2,17=6,18=5,40=1/2;
 3/5=1,6=6,7=1,11=2,25=1,30=1,71=2,74=-5,124=41,140=1/1,2,3;
 4//1;
 5/5=2,38=5/2;
 8/6=4,10=90,11=11/1;
 11/6=1,8=1,9=11,15=111,16=1/1,2,10;
 10/6=1,13=1/2;
 6/7=2,8=2,9=2,10=2,28=1/1;
 7/10=1,18=20,25=1/1,2,3,16;
 1/5=1,8=5,10=4,11=1,18=20,26=3/3(2);
 2/9=110/2;
 99//99;
 2/9=110/2;
 3/5=1,6=6,7=1,11=2,25=1,30=1,71=1,74=-5,124=41/1,2,3;
 4/5=5,16=3,69=1/1;
 5/5=2,38=5/2;
 7//1,2,3,16;
 1/5=1,8=5,11=1,18=20,26=3/3(-5);
 2/9=110/2;
 6/7=2,8=2,9=2,10=2,19=2,28=1/1;
 99/9=1/99;
 Leave Link    1 at Tue Oct 27 19:03:16 2020, MaxMem=  4294967296 cpu:               1.2 elap:               0.1
 (Enter /n/sw/g16_nehalem/g16/l101.exe)
 -----
 title
 -----
 Symbolic Z-matrix:
 Charge =  0 Multiplicity = 1
 C                    -0.9602   -0.12292   0.53338 
 O                    -0.08814  -0.73858   1.10834 
 C                    -1.88979   0.88197   1.13983 
 H                    -2.21082   1.60943   0.39731 
 H                    -2.76503   0.34367   1.52819 
 H                    -1.37198   1.38268   1.95914 
 Cl                   -1.49557  -0.72517  -1.09412 
 N                     1.35594   1.23727  -0.41011 
 N                     0.33974   1.82556  -0.40295 
 N                     2.37187   0.61107  -0.40208 
 Na                    1.91862  -1.39736   0.39231 
 
 ITRead=  0  0  0  0  0  0  0  0  0  0  0
 MicOpt= -1 -1 -1 -1 -1 -1 -1 -1 -1 -1 -1
 NAtoms=     11 NQM=       11 NQMF=       0 NMMI=      0 NMMIF=      0
                NMic=       0 NMicF=      0.
                    Isotopes and Nuclear Properties:
 (Nuclear quadrupole moments (NQMom) in fm**2, nuclear magnetic moments (NMagM)
  in nuclear magnetons)

  Atom         1           2           3           4           5           6           7           8           9          10
 IAtWgt=          12          16          12           1           1           1          35          14          14          14
 AtmWgt=  12.0000000  15.9949146  12.0000000   1.0078250   1.0078250   1.0078250  34.9688527  14.0030740  14.0030740  14.0030740
 NucSpn=           0           0           0           1           1           1           3           2           2           2
 AtZEff=   0.0000000   0.0000000   0.0000000   0.0000000   0.0000000   0.0000000   0.0000000   0.0000000   0.0000000   0.0000000
 NQMom=    0.0000000   0.0000000   0.0000000   0.0000000   0.0000000   0.0000000  -8.1650000   2.0440000   2.0440000   2.0440000
 NMagM=    0.0000000   0.0000000   0.0000000   2.7928460   2.7928460   2.7928460   0.8218740   0.4037610   0.4037610   0.4037610
 AtZNuc=   6.0000000   8.0000000   6.0000000   1.0000000   1.0000000   1.0000000  17.0000000   7.0000000   7.0000000   7.0000000

  Atom        11
 IAtWgt=          23
 AtmWgt=  22.9897697
 NucSpn=           3
 AtZEff=   0.0000000
 NQMom=   10.4000000
 NMagM=    2.2175200
 AtZNuc=  11.0000000
 Leave Link  101 at Tue Oct 27 19:03:17 2020, MaxMem=  4294967296 cpu:               5.2 elap:               0.3
 (Enter /n/sw/g16_nehalem/g16/l103.exe)

 GradGradGradGradGradGradGradGradGradGradGradGradGradGradGradGradGradGrad
 Berny optimization.
 Initialization pass.
                           ----------------------------
                           !    Initial Parameters    !
                           ! (Angstroms and Degrees)  !
 --------------------------                            --------------------------
 ! Name  Definition              Value          Derivative Info.                !
 --------------------------------------------------------------------------------
 ! R1    R(1,2)                  1.2125         calculate D2E/DX2 analytically  !
 ! R2    R(1,3)                  1.4972         calculate D2E/DX2 analytically  !
 ! R3    R(1,7)                  1.8161         calculate D2E/DX2 analytically  !
 ! R4    R(2,11)                 2.2302         calculate D2E/DX2 analytically  !
 ! R5    R(3,4)                  1.0879         calculate D2E/DX2 analytically  !
 ! R6    R(3,5)                  1.0985         calculate D2E/DX2 analytically  !
 ! R7    R(3,6)                  1.0909         calculate D2E/DX2 analytically  !
 ! R8    R(8,9)                  1.1742         calculate D2E/DX2 analytically  !
 ! R9    R(8,10)                 1.1934         calculate D2E/DX2 analytically  !
 ! R10   R(10,11)                2.2069         calculate D2E/DX2 analytically  !
 ! A1    A(2,1,3)              126.5325         calculate D2E/DX2 analytically  !
 ! A2    A(2,1,7)              117.9439         calculate D2E/DX2 analytically  !
 ! A3    A(3,1,7)              113.7364         calculate D2E/DX2 analytically  !
 ! A4    A(1,2,11)             130.1597         calculate D2E/DX2 analytically  !
 ! A5    A(1,3,4)              110.8271         calculate D2E/DX2 analytically  !
 ! A6    A(1,3,5)              107.9988         calculate D2E/DX2 analytically  !
 ! A7    A(1,3,6)              108.5149         calculate D2E/DX2 analytically  !
 ! A8    A(4,3,5)              109.5033         calculate D2E/DX2 analytically  !
 ! A9    A(4,3,6)              110.2269         calculate D2E/DX2 analytically  !
 ! A10   A(5,3,6)              109.7299         calculate D2E/DX2 analytically  !
 ! A11   A(8,10,11)            107.7645         calculate D2E/DX2 analytically  !
 ! A12   A(2,11,10)             91.8079         calculate D2E/DX2 analytically  !
 ! A13   L(9,8,10,2,-1)        178.2691         calculate D2E/DX2 analytically  !
 ! A14   L(9,8,10,2,-2)        179.7867         calculate D2E/DX2 analytically  !
 ! D1    D(3,1,2,11)          -145.0042         calculate D2E/DX2 analytically  !
 ! D2    D(7,1,2,11)            51.2443         calculate D2E/DX2 analytically  !
 ! D3    D(2,1,3,4)            152.1056         calculate D2E/DX2 analytically  !
 ! D4    D(2,1,3,5)            -87.949          calculate D2E/DX2 analytically  !
 ! D5    D(2,1,3,6)             30.9413         calculate D2E/DX2 analytically  !
 ! D6    D(7,1,3,4)            -43.5601         calculate D2E/DX2 analytically  !
 ! D7    D(7,1,3,5)             76.3853         calculate D2E/DX2 analytically  !
 ! D8    D(7,1,3,6)           -164.7244         calculate D2E/DX2 analytically  !
 ! D9    D(1,2,11,10)           48.5724         calculate D2E/DX2 analytically  !
 ! D10   D(8,10,11,2)          -12.7343         calculate D2E/DX2 analytically  !
 --------------------------------------------------------------------------------
 Trust Radius=5.00D-02 FncErr=1.00D-07 GrdErr=1.00D-06 EigMax=2.50D+02 EigMin=1.00D-04
 Number of steps in this run=     44 maximum allowed number of steps=    100.
 Search for a saddle point of order  1.
 GradGradGradGradGradGradGradGradGradGradGradGradGradGradGradGradGradGrad

 Leave Link  103 at Tue Oct 27 19:03:17 2020, MaxMem=  4294967296 cpu:               0.1 elap:               0.0
 (Enter /n/sw/g16_nehalem/g16/l202.exe)
                          Input orientation:                          
 ---------------------------------------------------------------------
 Center     Atomic      Atomic             Coordinates (Angstroms)
 Number     Number       Type             X           Y           Z
 ---------------------------------------------------------------------
      1          6           0       -0.960204   -0.122920    0.533384
      2          8           0       -0.088141   -0.738578    1.108344
      3          6           0       -1.889793    0.881972    1.139825
      4          1           0       -2.210821    1.609428    0.397310
      5          1           0       -2.765032    0.343671    1.528192
      6          1           0       -1.371984    1.382684    1.959139
      7         17           0       -1.495569   -0.725167   -1.094118
      8          7           0        1.355940    1.237265   -0.410112
      9          7           0        0.339737    1.825563   -0.402950
     10          7           0        2.371869    0.611069   -0.402083
     11         11           0        1.918618   -1.397355    0.392307
 ---------------------------------------------------------------------
                    Distance matrix (angstroms):
                    1          2          3          4          5
     1  C    0.000000
     2  O    1.212480   0.000000
     3  C    1.497236   2.423453   0.000000
     4  H    2.140932   3.244144   1.087925   0.000000
     5  H    2.112997   2.917753   1.098472   1.785549   0.000000
     6  H    2.114044   2.621423   1.090924   1.787280   1.790488
     7  Cl   1.816062   2.613785   2.780074   2.861167   3.103298
     8  N    2.846895   2.880110   3.614322   3.675897   4.640899
     9  N    2.522529   3.006977   2.870770   2.681879   3.945238
    10  N    3.537873   3.186626   4.540114   4.757814   5.494107
    11  Na   3.151461   2.230197   4.500901   5.108134   5.124254
                    6          7          8          9         10
     6  H    0.000000
     7  Cl   3.712235   0.000000
     8  N    3.616084   3.528471   0.000000
     9  N    2.950525   3.217497   1.174229   0.000000
    10  N    4.493016   4.149881   1.193439   2.367395   0.000000
    11  Na   4.583846   3.783909   2.810997   3.675935   2.206866
                   11
    11  Na   0.000000
 Stoichiometry    C2H3ClN3NaO
 Framework group  C1[X(C2H3ClN3NaO)]
 Deg. of freedom    27
 Full point group                 C1      NOp   1
 Largest Abelian subgroup         C1      NOp   1
 Largest concise Abelian subgroup C1      NOp   1
                         Standard orientation:                         
 ---------------------------------------------------------------------
 Center     Atomic      Atomic             Coordinates (Angstroms)
 Number     Number       Type             X           Y           Z
 ---------------------------------------------------------------------
      1          6           0       -0.960204   -0.122920    0.533384
      2          8           0       -0.088141   -0.738578    1.108344
      3          6           0       -1.889793    0.881972    1.139825
      4          1           0       -2.210821    1.609428    0.397310
      5          1           0       -2.765032    0.343671    1.528192
      6          1           0       -1.371984    1.382684    1.959139
      7         17           0       -1.495569   -0.725167   -1.094118
      8          7           0        1.355940    1.237265   -0.410112
      9          7           0        0.339737    1.825563   -0.402950
     10          7           0        2.371869    0.611069   -0.402083
     11         11           0        1.918618   -1.397355    0.392307
 ---------------------------------------------------------------------
 Rotational constants (GHZ):           1.9747688           1.1636773           1.0163768
 Leave Link  202 at Tue Oct 27 19:03:17 2020, MaxMem=  4294967296 cpu:               0.1 elap:               0.0
 (Enter /n/sw/g16_nehalem/g16/l301.exe)
 Standard basis: 6-31G(d) (6D, 7F)
 Ernie: Thresh=  0.10000D-02 Tol=  0.10000D-05 Strict=F.
 There are   134 symmetry adapted cartesian basis functions of A   symmetry.
 There are   134 symmetry adapted basis functions of A   symmetry.
   134 basis functions,   284 primitive gaussians,   134 cartesian basis functions
    36 alpha electrons       36 beta electrons
       nuclear repulsion energy       448.3887139094 Hartrees.
 IExCor=  402 DFT=T Ex+Corr=B3LYP ExCW=0 ScaHFX=  0.200000
 ScaDFX=  0.800000  0.720000  1.000000  0.810000 ScalE2=  1.000000  1.000000
 IRadAn=      5 IRanWt=     -1 IRanGd=            0 ICorTp=0 IEmpDi=141
 NAtoms=   11 NActive=   11 NUniq=   11 SFac= 1.00D+00 NAtFMM=   60 NAOKFM=F Big=F
 Integral buffers will be    131072 words long.
 Raffenetti 2 integral format.
 Two-electron integral symmetry is turned on.
 R6Disp:  Grimme-D3(BJ) Dispersion energy=       -0.0208805113 Hartrees.
 Nuclear repulsion after empirical dispersion term =      448.3678333981 Hartrees.
 Leave Link  301 at Tue Oct 27 19:03:17 2020, MaxMem=  4294967296 cpu:               0.9 elap:               0.1
 (Enter /n/sw/g16_nehalem/g16/l302.exe)
 NPDir=0 NMtPBC=     1 NCelOv=     1 NCel=       1 NClECP=     1 NCelD=      1
         NCelK=      1 NCelE2=     1 NClLst=     1 CellRange=     0.0.
 One-electron integrals computed using PRISM.
 One-electron integral symmetry used in STVInt
 NBasis=   134 RedAO= T EigKep=  1.53D-03  NBF=   134
 NBsUse=   134 1.00D-06 EigRej= -1.00D+00 NBFU=   134
 Precomputing XC quadrature grid using
 IXCGrd= 4 IRadAn=           5 IRanWt=          -1 IRanGd=           0 AccXCQ= 0.00D+00.
 Generated NRdTot=       0 NPtTot=           0 NUsed=           0 NTot=          32
 NSgBfM=   133   133   133   133   133 MxSgAt=    11 MxSgA2=    11.
 Leave Link  302 at Tue Oct 27 19:03:17 2020, MaxMem=  4294967296 cpu:               2.8 elap:               0.2
 (Enter /n/sw/g16_nehalem/g16/l303.exe)
 DipDrv:  MaxL=1.
 Leave Link  303 at Tue Oct 27 19:03:17 2020, MaxMem=  4294967296 cpu:               0.8 elap:               0.1
 (Enter /n/sw/g16_nehalem/g16/l401.exe)
 ExpMin= 2.60D-02 ExpMax= 2.52D+04 ExpMxC= 3.78D+03 IAcc=3 IRadAn=         5 AccDes= 0.00D+00
 Harris functional with IExCor=  402 and IRadAn=       5 diagonalized for initial guess.
 HarFok:  IExCor=  402 AccDes= 0.00D+00 IRadAn=         5 IDoV= 1 UseB2=F ITyADJ=14
 ICtDFT=  3500011 ScaDFX=  1.000000  1.000000  1.000000  1.000000
 FoFCou: FMM=F IPFlag=           0 FMFlag=      100000 FMFlg1=           0
         NFxFlg=           0 DoJE=T BraDBF=F KetDBF=T FulRan=T
         wScrn=  0.000000 ICntrl=       500 IOpCl=  0 I1Cent=   200000004 NGrid=           0
         NMat0=    1 NMatS0=      1 NMatT0=    0 NMatD0=    1 NMtDS0=    0 NMtDT0=    0
 Petite list used in FoFCou.
 Harris En= -939.949124459167    
 JPrj=0 DoOrth=F DoCkMO=F.
 Leave Link  401 at Tue Oct 27 19:03:18 2020, MaxMem=  4294967296 cpu:               4.9 elap:               0.3
 (Enter /n/sw/g16_nehalem/g16/l502.exe)
 Keep R1 ints in memory in canonical form, NReq=56246956.
 FoFCou: FMM=F IPFlag=           0 FMFlag=           0 FMFlg1=           0
         NFxFlg=           0 DoJE=F BraDBF=F KetDBF=F FulRan=T
         wScrn=  0.000000 ICntrl=       600 IOpCl=  0 I1Cent=           0 NGrid=           0
         NMat0=    1 NMatS0=   9045 NMatT0=    0 NMatD0=    1 NMtDS0=    0 NMtDT0=    0
 Symmetry not used in FoFCou.
 Two-electron integral symmetry not used.
 Closed shell SCF:
 Using DIIS extrapolation, IDIIS=  1040.
 NGot=  4294967296 LenX=  4254017214 LenY=  4253998817
 Requested convergence on RMS density matrix=1.00D-08 within 128 cycles.
 Requested convergence on MAX density matrix=1.00D-06.
 Requested convergence on             energy=1.00D-06.
 No special actions if energy rises.

 Cycle   1  Pass 1  IDiag  1:
 E= -939.784445411063    
 DIIS: error= 2.89D-02 at cycle   1 NSaved=   1.
 NSaved= 1 IEnMin= 1 EnMin= -939.784445411063     IErMin= 1 ErrMin= 2.89D-02
 ErrMax= 2.89D-02  0.00D+00 EMaxC= 1.00D-01 BMatC= 2.70D-01 BMatP= 2.70D-01
 IDIUse=3 WtCom= 7.11D-01 WtEn= 2.89D-01
 Coeff-Com:  0.100D+01
 Coeff-En:   0.100D+01
 Coeff:      0.100D+01
 Gap=     0.106 Goal=   None    Shift=    0.000
 GapD=    0.106 DampG=1.000 DampE=0.500 DampFc=0.5000 IDamp=-1.
 Damping current iteration by 5.00D-01
 RMSDP=8.93D-03 MaxDP=1.99D-01              OVMax= 3.38D-01

 Cycle   2  Pass 1  IDiag  1:
 E= -939.795741398921     Delta-E=       -0.011295987858 Rises=F Damp=T
 DIIS: error= 1.33D-02 at cycle   2 NSaved=   2.
 NSaved= 2 IEnMin= 2 EnMin= -939.795741398921     IErMin= 2 ErrMin= 1.33D-02
 ErrMax= 1.33D-02  0.00D+00 EMaxC= 1.00D-01 BMatC= 7.17D-02 BMatP= 2.70D-01
 IDIUse=3 WtCom= 8.67D-01 WtEn= 1.33D-01
 Coeff-Com:  0.306D+00 0.694D+00
 Coeff-En:   0.480D+00 0.520D+00
 Coeff:      0.329D+00 0.671D+00
 Gap=     0.101 Goal=   None    Shift=    0.000
 RMSDP=2.95D-03 MaxDP=5.35D-02 DE=-1.13D-02 OVMax= 2.29D-01

 Cycle   3  Pass 1  IDiag  1:
 E= -939.957303362433     Delta-E=       -0.161561963512 Rises=F Damp=F
 DIIS: error= 1.18D-02 at cycle   3 NSaved=   3.
 NSaved= 3 IEnMin= 3 EnMin= -939.957303362433     IErMin= 3 ErrMin= 1.18D-02
 ErrMax= 1.18D-02  0.00D+00 EMaxC= 1.00D-01 BMatC= 5.55D-02 BMatP= 7.17D-02
 IDIUse=3 WtCom= 8.82D-01 WtEn= 1.18D-01
 Coeff-Com:  0.153D+00 0.462D+00 0.385D+00
 Coeff-En:   0.000D+00 0.000D+00 0.100D+01
 Coeff:      0.135D+00 0.407D+00 0.458D+00
 Gap=     0.139 Goal=   None    Shift=    0.000
 RMSDP=2.25D-03 MaxDP=6.76D-02 DE=-1.62D-01 OVMax= 1.19D-01

 Cycle   4  Pass 1  IDiag  1:
 E= -939.981934496005     Delta-E=       -0.024631133572 Rises=F Damp=F
 DIIS: error= 1.07D-02 at cycle   4 NSaved=   4.
 NSaved= 4 IEnMin= 4 EnMin= -939.981934496005     IErMin= 4 ErrMin= 1.07D-02
 ErrMax= 1.07D-02  0.00D+00 EMaxC= 1.00D-01 BMatC= 2.97D-02 BMatP= 5.55D-02
 IDIUse=3 WtCom= 8.93D-01 WtEn= 1.07D-01
 Coeff-Com:  0.583D-01 0.212D+00 0.370D+00 0.360D+00
 Coeff-En:   0.000D+00 0.000D+00 0.377D+00 0.623D+00
 Coeff:      0.520D-01 0.189D+00 0.370D+00 0.388D+00
 Gap=     0.138 Goal=   None    Shift=    0.000
 RMSDP=1.24D-03 MaxDP=4.13D-02 DE=-2.46D-02 OVMax= 8.18D-02

 Cycle   5  Pass 1  IDiag  1:
 E= -940.003530111320     Delta-E=       -0.021595615315 Rises=F Damp=F
 DIIS: error= 4.37D-03 at cycle   5 NSaved=   5.
 NSaved= 5 IEnMin= 5 EnMin= -940.003530111320     IErMin= 5 ErrMin= 4.37D-03
 ErrMax= 4.37D-03  0.00D+00 EMaxC= 1.00D-01 BMatC= 5.10D-03 BMatP= 2.97D-02
 IDIUse=3 WtCom= 9.56D-01 WtEn= 4.37D-02
 Coeff-Com:  0.426D-02 0.425D-01 0.191D+00 0.322D+00 0.440D+00
 Coeff-En:   0.000D+00 0.000D+00 0.000D+00 0.200D+00 0.800D+00
 Coeff:      0.407D-02 0.406D-01 0.183D+00 0.317D+00 0.456D+00
 Gap=     0.133 Goal=   None    Shift=    0.000
 RMSDP=4.57D-04 MaxDP=1.48D-02 DE=-2.16D-02 OVMax= 2.87D-02

 Cycle   6  Pass 1  IDiag  1:
 E= -940.007771574573     Delta-E=       -0.004241463253 Rises=F Damp=F
 DIIS: error= 8.35D-04 at cycle   6 NSaved=   6.
 NSaved= 6 IEnMin= 6 EnMin= -940.007771574573     IErMin= 6 ErrMin= 8.35D-04
 ErrMax= 8.35D-04  0.00D+00 EMaxC= 1.00D-01 BMatC= 2.98D-04 BMatP= 5.10D-03
 IDIUse=3 WtCom= 9.92D-01 WtEn= 8.35D-03
 Coeff-Com: -0.282D-02 0.438D-02 0.787D-01 0.156D+00 0.286D+00 0.478D+00
 Coeff-En:   0.000D+00 0.000D+00 0.000D+00 0.000D+00 0.284D-01 0.972D+00
 Coeff:     -0.279D-02 0.435D-02 0.781D-01 0.155D+00 0.284D+00 0.482D+00
 Gap=     0.133 Goal=   None    Shift=    0.000
 RMSDP=1.06D-04 MaxDP=2.97D-03 DE=-4.24D-03 OVMax= 4.39D-03

 Cycle   7  Pass 1  IDiag  1:
 E= -940.008000471569     Delta-E=       -0.000228896995 Rises=F Damp=F
 DIIS: error= 2.19D-04 at cycle   7 NSaved=   7.
 NSaved= 7 IEnMin= 7 EnMin= -940.008000471569     IErMin= 7 ErrMin= 2.19D-04
 ErrMax= 2.19D-04  0.00D+00 EMaxC= 1.00D-01 BMatC= 1.63D-05 BMatP= 2.98D-04
 IDIUse=3 WtCom= 9.98D-01 WtEn= 2.19D-03
 Coeff-Com: -0.114D-02-0.452D-03 0.175D-01 0.337D-01 0.772D-01 0.248D+00
 Coeff-Com:  0.625D+00
 Coeff-En:   0.000D+00 0.000D+00 0.000D+00 0.000D+00 0.000D+00 0.000D+00
 Coeff-En:   0.100D+01
 Coeff:     -0.114D-02-0.451D-03 0.174D-01 0.337D-01 0.771D-01 0.247D+00
 Coeff:      0.626D+00
 Gap=     0.133 Goal=   None    Shift=    0.000
 RMSDP=3.34D-05 MaxDP=9.28D-04 DE=-2.29D-04 OVMax= 1.08D-03

 Cycle   8  Pass 1  IDiag  1:
 E= -940.008013362520     Delta-E=       -0.000012890951 Rises=F Damp=F
 DIIS: error= 6.25D-05 at cycle   8 NSaved=   8.
 NSaved= 8 IEnMin= 8 EnMin= -940.008013362520     IErMin= 8 ErrMin= 6.25D-05
 ErrMax= 6.25D-05  0.00D+00 EMaxC= 1.00D-01 BMatC= 7.63D-07 BMatP= 1.63D-05
 IDIUse=1 WtCom= 1.00D+00 WtEn= 0.00D+00
 Coeff-Com: -0.405D-03-0.612D-03 0.202D-02 0.384D-02 0.131D-01 0.780D-01
 Coeff-Com:  0.272D+00 0.632D+00
 Coeff:     -0.405D-03-0.612D-03 0.202D-02 0.384D-02 0.131D-01 0.780D-01
 Coeff:      0.272D+00 0.632D+00
 Gap=     0.133 Goal=   None    Shift=    0.000
 RMSDP=1.09D-05 MaxDP=5.05D-04 DE=-1.29D-05 OVMax= 4.18D-04

 Cycle   9  Pass 1  IDiag  1:
 E= -940.008014178035     Delta-E=       -0.000000815515 Rises=F Damp=F
 DIIS: error= 1.14D-05 at cycle   9 NSaved=   9.
 NSaved= 9 IEnMin= 9 EnMin= -940.008014178035     IErMin= 9 ErrMin= 1.14D-05
 ErrMax= 1.14D-05  0.00D+00 EMaxC= 1.00D-01 BMatC= 5.64D-08 BMatP= 7.63D-07
 IDIUse=1 WtCom= 1.00D+00 WtEn= 0.00D+00
 Coeff-Com: -0.887D-04-0.232D-03-0.380D-03-0.766D-03 0.541D-04 0.184D-01
 Coeff-Com:  0.770D-01 0.275D+00 0.631D+00
 Coeff:     -0.887D-04-0.232D-03-0.380D-03-0.766D-03 0.541D-04 0.184D-01
 Coeff:      0.770D-01 0.275D+00 0.631D+00
 Gap=     0.133 Goal=   None    Shift=    0.000
 RMSDP=2.99D-06 MaxDP=1.05D-04 DE=-8.16D-07 OVMax= 1.12D-04

 Cycle  10  Pass 1  IDiag  1:
 E= -940.008014229162     Delta-E=       -0.000000051127 Rises=F Damp=F
 DIIS: error= 5.84D-06 at cycle  10 NSaved=  10.
 NSaved=10 IEnMin=10 EnMin= -940.008014229162     IErMin=10 ErrMin= 5.84D-06
 ErrMax= 5.84D-06  0.00D+00 EMaxC= 1.00D-01 BMatC= 1.25D-08 BMatP= 5.64D-08
 IDIUse=1 WtCom= 1.00D+00 WtEn= 0.00D+00
 Coeff-Com: -0.160D-06-0.369D-04-0.353D-03-0.716D-03-0.131D-02 0.103D-02
 Coeff-Com:  0.841D-02 0.743D-01 0.369D+00 0.550D+00
 Coeff:     -0.160D-06-0.369D-04-0.353D-03-0.716D-03-0.131D-02 0.103D-02
 Coeff:      0.841D-02 0.743D-01 0.369D+00 0.550D+00
 Gap=     0.133 Goal=   None    Shift=    0.000
 RMSDP=1.04D-06 MaxDP=2.00D-05 DE=-5.11D-08 OVMax= 4.49D-05

 Cycle  11  Pass 1  IDiag  1:
 E= -940.008014242514     Delta-E=       -0.000000013352 Rises=F Damp=F
 DIIS: error= 6.47D-07 at cycle  11 NSaved=  11.
 NSaved=11 IEnMin=11 EnMin= -940.008014242514     IErMin=11 ErrMin= 6.47D-07
 ErrMax= 6.47D-07  0.00D+00 EMaxC= 1.00D-01 BMatC= 2.49D-10 BMatP= 1.25D-08
 IDIUse=1 WtCom= 1.00D+00 WtEn= 0.00D+00
 Coeff-Com:  0.510D-05-0.160D-05-0.858D-04-0.190D-03-0.433D-03-0.118D-02
 Coeff-Com: -0.389D-02-0.301D-03 0.696D-01 0.160D+00 0.776D+00
 Coeff:      0.510D-05-0.160D-05-0.858D-04-0.190D-03-0.433D-03-0.118D-02
 Coeff:     -0.389D-02-0.301D-03 0.696D-01 0.160D+00 0.776D+00
 Gap=     0.133 Goal=   None    Shift=    0.000
 RMSDP=2.30D-07 MaxDP=4.61D-06 DE=-1.34D-08 OVMax= 1.16D-05

 Cycle  12  Pass 1  IDiag  1:
 E= -940.008014242804     Delta-E=       -0.000000000290 Rises=F Damp=F
 DIIS: error= 3.29D-07 at cycle  12 NSaved=  12.
 NSaved=12 IEnMin=12 EnMin= -940.008014242804     IErMin=12 ErrMin= 3.29D-07
 ErrMax= 3.29D-07  0.00D+00 EMaxC= 1.00D-01 BMatC= 3.75D-11 BMatP= 2.49D-10
 IDIUse=1 WtCom= 1.00D+00 WtEn= 0.00D+00
 Coeff-Com:  0.240D-05 0.200D-05-0.501D-05-0.267D-04-0.787D-04-0.540D-03
 Coeff-Com: -0.221D-02-0.577D-02 0.261D-02 0.206D-01 0.321D+00 0.665D+00
 Coeff:      0.240D-05 0.200D-05-0.501D-05-0.267D-04-0.787D-04-0.540D-03
 Coeff:     -0.221D-02-0.577D-02 0.261D-02 0.206D-01 0.321D+00 0.665D+00
 Gap=     0.133 Goal=   None    Shift=    0.000
 RMSDP=6.92D-08 MaxDP=1.24D-06 DE=-2.90D-10 OVMax= 3.81D-06

 Cycle  13  Pass 1  IDiag  1:
 E= -940.008014242844     Delta-E=       -0.000000000040 Rises=F Damp=F
 DIIS: error= 7.69D-08 at cycle  13 NSaved=  13.
 NSaved=13 IEnMin=13 EnMin= -940.008014242844     IErMin=13 ErrMin= 7.69D-08
 ErrMax= 7.69D-08  0.00D+00 EMaxC= 1.00D-01 BMatC= 2.64D-12 BMatP= 3.75D-11
 IDIUse=1 WtCom= 1.00D+00 WtEn= 0.00D+00
 Coeff-Com:  0.655D-06 0.226D-07 0.581D-05 0.580D-05 0.296D-05-0.118D-03
 Coeff-Com: -0.562D-03-0.225D-02-0.450D-02-0.587D-02 0.617D-01 0.262D+00
 Coeff-Com:  0.690D+00
 Coeff:      0.655D-06 0.226D-07 0.581D-05 0.580D-05 0.296D-05-0.118D-03
 Coeff:     -0.562D-03-0.225D-02-0.450D-02-0.587D-02 0.617D-01 0.262D+00
 Coeff:      0.690D+00
 Gap=     0.133 Goal=   None    Shift=    0.000
 RMSDP=1.71D-08 MaxDP=3.16D-07 DE=-3.98D-11 OVMax= 8.32D-07

 Cycle  14  Pass 1  IDiag  1:
 E= -940.008014242846     Delta-E=       -0.000000000003 Rises=F Damp=F
 DIIS: error= 1.65D-08 at cycle  14 NSaved=  14.
 NSaved=14 IEnMin=14 EnMin= -940.008014242846     IErMin=14 ErrMin= 1.65D-08
 ErrMax= 1.65D-08  0.00D+00 EMaxC= 1.00D-01 BMatC= 1.04D-13 BMatP= 2.64D-12
 IDIUse=1 WtCom= 1.00D+00 WtEn= 0.00D+00
 Coeff-Com:  0.169D-06-0.359D-06 0.180D-05 0.307D-05 0.356D-05 0.173D-05
 Coeff-Com: -0.419D-05-0.167D-03-0.123D-02-0.249D-02-0.391D-02 0.205D-01
 Coeff-Com:  0.153D+00 0.835D+00
 Coeff:      0.169D-06-0.359D-06 0.180D-05 0.307D-05 0.356D-05 0.173D-05
 Coeff:     -0.419D-05-0.167D-03-0.123D-02-0.249D-02-0.391D-02 0.205D-01
 Coeff:      0.153D+00 0.835D+00
 Gap=     0.133 Goal=   None    Shift=    0.000
 RMSDP=3.98D-09 MaxDP=6.72D-08 DE=-2.73D-12 OVMax= 1.89D-07

 SCF Done:  E(RB3LYP) =  -940.008014243     A.U. after   14 cycles
            NFock= 14  Conv=0.40D-08     -V/T= 2.0054
 KE= 9.349600341343D+02 PE=-3.122900225233D+03 EE= 7.995643434577D+02
 Leave Link  502 at Tue Oct 27 19:03:23 2020, MaxMem=  4294967296 cpu:              65.8 elap:               5.1
 (Enter /n/sw/g16_nehalem/g16/l801.exe)
 DoSCS=F DFT=T ScalE2(SS,OS)=  1.000000  1.000000
 Range of M.O.s used for correlation:     1   134
 NBasis=   134 NAE=    36 NBE=    36 NFC=     0 NFV=     0
 NROrb=    134 NOA=    36 NOB=    36 NVA=    98 NVB=    98
 Leave Link  801 at Tue Oct 27 19:03:23 2020, MaxMem=  4294967296 cpu:               0.8 elap:               0.1
 (Enter /n/sw/g16_nehalem/g16/l1101.exe)
 Using compressed storage, NAtomX=    11.
 Will process     12 centers per pass.
 R6Disp: Adding Grimme-D3(BJ) dispersion energy 1st derivatives to the gradient.
 Leave Link 1101 at Tue Oct 27 19:03:23 2020, MaxMem=  4294967296 cpu:               1.9 elap:               0.1
 (Enter /n/sw/g16_nehalem/g16/l1102.exe)
 Symmetrizing basis deriv contribution to polar:
 IMax=3 JMax=2 DiffMx= 0.00D+00
 Leave Link 1102 at Tue Oct 27 19:03:23 2020, MaxMem=  4294967296 cpu:               0.6 elap:               0.0
 (Enter /n/sw/g16_nehalem/g16/l1110.exe)
 Forming Gx(P) for the SCF density, NAtomX=    11.
 Integral derivatives from FoFJK, PRISM(SPDF).
 Do as many integral derivatives as possible in FoFJK.
 G2DrvN: MDV=    4294966368.
 G2DrvN: will do    12 centers at a time, making    1 passes.
 Calling FoFCou, ICntrl=  3107 FMM=F I1Cent=   0 AccDes= 0.00D+00.
 FoFJK:  IHMeth= 1 ICntrl=    3107 DoSepK=F KAlg= 0 I1Cent=           0 FoldK=F
 IRaf=         0 NMat=       1 IRICut=       1 DoRegI=T DoRafI=F ISym2E= 0 IDoP0=0 IntGTp=1.
 FoFCou: FMM=F IPFlag=           0 FMFlag=      100000 FMFlg1=           0
         NFxFlg=           0 DoJE=F BraDBF=F KetDBF=F FulRan=T
         wScrn=  0.000000 ICntrl=      3107 IOpCl=  0 I1Cent=           0 NGrid=           0
         NMat0=    1 NMatS0=      1 NMatT0=    0 NMatD0=    1 NMtDS0=    0 NMtDT0=    0
 Symmetry not used in FoFCou.
 End of G2Drv F.D. properties file   721 does not exist.
 End of G2Drv F.D. properties file   722 does not exist.
 End of G2Drv F.D. properties file   788 does not exist.
 Leave Link 1110 at Tue Oct 27 19:03:28 2020, MaxMem=  4294967296 cpu:              76.8 elap:               4.9
 (Enter /n/sw/g16_nehalem/g16/l1002.exe)
 Minotr:  Closed shell wavefunction.
          IDoAtm=11111111111
          Direct CPHF calculation.
          Differentiating once with respect to nuclear coordinates.
          Requested convergence is 1.0D-08 RMS, and 1.0D-07 maximum.
          Secondary convergence is 1.0D-12 RMS, and 1.0D-12 maximum.
          NewPWx=T KeepS1=F KeepF1=F KeepIn=T MapXYZ=F SortEE=F KeepMc=T.
         3370 words used for storage of precomputed grid.
 Keep R1 ints in memory in canonical form, NReq=56201768.
 FoFCou: FMM=F IPFlag=           0 FMFlag=           0 FMFlg1=           0
         NFxFlg=           0 DoJE=F BraDBF=F KetDBF=F FulRan=T
         wScrn=  0.000000 ICntrl=       600 IOpCl=  0 I1Cent=           0 NGrid=           0
         NMat0=    1 NMatS0=   9045 NMatT0=    0 NMatD0=    1 NMtDS0=    0 NMtDT0=    0
 Symmetry not used in FoFCou.
 Two-electron integral symmetry not used.
          MDV=    4294967296 using IRadAn=       1.
          Solving linear equations simultaneously, MaxMat=       0.
          There are    36 degrees of freedom in the 1st order CPHF.  IDoFFX=6 NUNeed=     0.
     30 vectors produced by pass  0 Test12= 9.80D-15 2.78D-09 XBig12= 3.31D-01 2.19D-01.
 AX will form    30 AO Fock derivatives at one time.
     30 vectors produced by pass  1 Test12= 9.80D-15 2.78D-09 XBig12= 3.41D-02 6.15D-02.
     30 vectors produced by pass  2 Test12= 9.80D-15 2.78D-09 XBig12= 6.43D-04 4.93D-03.
     30 vectors produced by pass  3 Test12= 9.80D-15 2.78D-09 XBig12= 3.61D-06 3.11D-04.
     30 vectors produced by pass  4 Test12= 9.80D-15 2.78D-09 XBig12= 1.01D-08 2.06D-05.
     30 vectors produced by pass  5 Test12= 9.80D-15 2.78D-09 XBig12= 1.58D-11 7.57D-07.
      7 vectors produced by pass  6 Test12= 9.80D-15 2.78D-09 XBig12= 1.87D-14 1.68D-08.
 InvSVY:  IOpt=1 It=  1 EMax= 2.11D-15
 Solved reduced A of dimension   187 with    30 vectors.
 End of Minotr F.D. properties file   721 does not exist.
 End of Minotr F.D. properties file   722 does not exist.
 End of Minotr F.D. properties file   788 does not exist.
 Leave Link 1002 at Tue Oct 27 19:03:33 2020, MaxMem=  4294967296 cpu:              74.3 elap:               4.7
 (Enter /n/sw/g16_nehalem/g16/l601.exe)
 Copying SCF densities to generalized density rwf, IOpCl= 0 IROHF=0.

 **********************************************************************

            Population analysis using the SCF density.

 **********************************************************************

 Orbital symmetries:
       Occupied  (A) (A) (A) (A) (A) (A) (A) (A) (A) (A) (A) (A)
                 (A) (A) (A) (A) (A) (A) (A) (A) (A) (A) (A) (A)
                 (A) (A) (A) (A) (A) (A) (A) (A) (A) (A) (A) (A)
       Virtual   (A) (A) (A) (A) (A) (A) (A) (A) (A) (A) (A) (A)
                 (A) (A) (A) (A) (A) (A) (A) (A) (A) (A) (A) (A)
                 (A) (A) (A) (A) (A) (A) (A) (A) (A) (A) (A) (A)
                 (A) (A) (A) (A) (A) (A) (A) (A) (A) (A) (A) (A)
                 (A) (A) (A) (A) (A) (A) (A) (A) (A) (A) (A) (A)
                 (A) (A) (A) (A) (A) (A) (A) (A) (A) (A) (A) (A)
                 (A) (A) (A) (A) (A) (A) (A) (A) (A) (A) (A) (A)
                 (A) (A) (A) (A) (A) (A) (A) (A) (A) (A) (A) (A)
                 (A) (A)
 The electronic state is 1-A.
 Alpha  occ. eigenvalues -- -101.54625 -38.50304 -19.18985 -14.43806 -14.30309
 Alpha  occ. eigenvalues --  -14.30007 -10.35308 -10.20742  -9.46369  -7.22679
 Alpha  occ. eigenvalues --   -7.21847  -7.21769  -2.24404  -1.17694  -1.17675
 Alpha  occ. eigenvalues --   -1.17475  -1.09360  -1.05309  -0.88441  -0.84761
 Alpha  occ. eigenvalues --   -0.75660  -0.56894  -0.49634  -0.48458  -0.47678
 Alpha  occ. eigenvalues --   -0.43094  -0.42910  -0.41568  -0.41098  -0.39096
 Alpha  occ. eigenvalues --   -0.35776  -0.32396  -0.32268  -0.30482  -0.19782
 Alpha  occ. eigenvalues --   -0.18820
 Alpha virt. eigenvalues --   -0.05522  -0.04309   0.00414   0.01617   0.02110
 Alpha virt. eigenvalues --    0.03920   0.06875   0.09031   0.09340   0.12764
 Alpha virt. eigenvalues --    0.13369   0.15464   0.16388   0.16901   0.20364
 Alpha virt. eigenvalues --    0.23176   0.29412   0.31616   0.32576   0.35110
 Alpha virt. eigenvalues --    0.36431   0.40773   0.42868   0.44950   0.47107
 Alpha virt. eigenvalues --    0.49280   0.50033   0.53151   0.53896   0.57028
 Alpha virt. eigenvalues --    0.60119   0.62074   0.63946   0.68510   0.70197
 Alpha virt. eigenvalues --    0.72304   0.74733   0.78087   0.78860   0.81417
 Alpha virt. eigenvalues --    0.84762   0.86240   0.86915   0.87433   0.88851
 Alpha virt. eigenvalues --    0.90759   0.92413   0.95223   0.99217   1.02118
 Alpha virt. eigenvalues --    1.04656   1.06719   1.09089   1.10733   1.17901
 Alpha virt. eigenvalues --    1.25831   1.32459   1.36033   1.41040   1.43565
 Alpha virt. eigenvalues --    1.46991   1.48246   1.50491   1.51311   1.54750
 Alpha virt. eigenvalues --    1.58560   1.68447   1.75558   1.78233   1.82113
 Alpha virt. eigenvalues --    1.83787   1.87061   1.92387   2.01744   2.08917
 Alpha virt. eigenvalues --    2.09488   2.14693   2.17059   2.18242   2.19168
 Alpha virt. eigenvalues --    2.28614   2.36459   2.48164   2.51059   2.58726
 Alpha virt. eigenvalues --    2.74498   2.81525   2.97653   2.98389   3.02043
 Alpha virt. eigenvalues --    3.19897   3.70688   3.77583   4.05299   4.15697
 Alpha virt. eigenvalues --    4.27186   4.28248   4.40342
          Condensed to atoms (all electrons):
               1          2          3          4          5          6
     1  C    4.673343   0.448601   0.354113  -0.019686  -0.029102  -0.024457
     2  O    0.448601   8.017131  -0.052122   0.002085  -0.001645  -0.000082
     3  C    0.354113  -0.052122   5.195823   0.366063   0.347119   0.362360
     4  H   -0.019686   0.002085   0.366063   0.471263  -0.025449  -0.019552
     5  H   -0.029102  -0.001645   0.347119  -0.025449   0.550612  -0.023882
     6  H   -0.024457  -0.000082   0.362360  -0.019552  -0.023882   0.498170
     7  Cl   0.243479  -0.077082  -0.092755   0.002831   0.001195   0.004520
     8  N   -0.000261  -0.005527  -0.000984   0.000089  -0.000014   0.000333
     9  N    0.052007  -0.013515  -0.009726  -0.000049   0.001405  -0.000263
    10  N   -0.008157   0.003638   0.000138   0.000021  -0.000007  -0.000005
    11  Na  -0.023158   0.104729   0.002654   0.000254   0.000768   0.000675
               7          8          9         10         11
     1  C    0.243479  -0.000261   0.052007  -0.008157  -0.023158
     2  O   -0.077082  -0.005527  -0.013515   0.003638   0.104729
     3  C   -0.092755  -0.000984  -0.009726   0.000138   0.002654
     4  H    0.002831   0.000089  -0.000049   0.000021   0.000254
     5  H    0.001195  -0.000014   0.001405  -0.000007   0.000768
     6  H    0.004520   0.000333  -0.000263  -0.000005   0.000675
     7  Cl  16.978928  -0.000585  -0.012166   0.000996   0.009006
     8  N   -0.000585   5.742843   0.498367   0.387182  -0.036453
     9  N   -0.012166   0.498367   7.087223  -0.126249   0.001032
    10  N    0.000996   0.387182  -0.126249   7.136990   0.170585
    11  Na   0.009006  -0.036453   0.001032   0.170585  10.121051
 Mulliken charges:
               1
     1  C    0.333277
     2  O   -0.426211
     3  C   -0.472683
     4  H    0.222130
     5  H    0.179000
     6  H    0.202183
     7  Cl  -0.058367
     8  N    0.415011
     9  N   -0.478065
    10  N   -0.565133
    11  Na   0.648859
 Sum of Mulliken charges =   0.00000
 Mulliken charges with hydrogens summed into heavy atoms:
               1
     1  C    0.333277
     2  O   -0.426211
     3  C    0.130629
     7  Cl  -0.058367
     8  N    0.415011
     9  N   -0.478065
    10  N   -0.565133
    11  Na   0.648859
 APT charges:
               1
     1  C    0.010489
     2  O   -0.377258
     3  C   -1.138361
     4  H    0.440803
     5  H    0.552425
     6  H    0.416605
     7  Cl  -0.013865
     8  N   -0.161146
     9  N   -0.319018
    10  N   -0.219640
    11  Na   0.808966
 Sum of APT charges =   0.00000
 APT charges with hydrogens summed into heavy atoms:
               1
     1  C    0.010489
     2  O   -0.377258
     3  C    0.271472
     7  Cl  -0.013865
     8  N   -0.161146
     9  N   -0.319018
    10  N   -0.219640
    11  Na   0.808966
 Electronic spatial extent (au):  <R**2>=           1200.5977
 Charge=              0.0000 electrons
 Dipole moment (field-independent basis, Debye):
    X=              0.2638    Y=             -6.0894    Z=              3.2025  Tot=              6.8853
 Quadrupole moment (field-independent basis, Debye-Ang):
   XX=            -48.6988   YY=            -48.9295   ZZ=            -52.3297
   XY=            -14.8011   XZ=              1.5976   YZ=              0.6804
 Traceless Quadrupole moment (field-independent basis, Debye-Ang):
   XX=              1.2872   YY=              1.0565   ZZ=             -2.3437
   XY=            -14.8011   XZ=              1.5976   YZ=              0.6804
 Octapole moment (field-independent basis, Debye-Ang**2):
  XXX=              3.3698  YYY=            -45.5974  ZZZ=              5.4111  XYY=             23.4115
  XXY=            -31.7333  XXZ=             19.3365  XZZ=              3.8736  YZZ=             -6.7272
  YYZ=              7.8312  XYZ=             -5.3700
 Hexadecapole moment (field-independent basis, Debye-Ang**3):
 XXXX=           -814.6367 YYYY=           -375.4623 ZZZZ=           -270.4903 XXXY=           -104.5145
 XXXZ=             32.5870 YYYX=            -66.2394 YYYZ=             -7.8525 ZZZX=             17.8966
 ZZZY=             -0.5966 XXYY=           -151.3860 XXZZ=           -169.6587 YYZZ=           -105.2241
 XXYZ=            -11.7733 YYXZ=             11.1742 ZZXY=            -13.6781
 N-N= 4.483678333981D+02 E-N=-3.122900226126D+03  KE= 9.349600341343D+02
  Exact polarizability:   0.000   0.000   0.000   0.000   0.000   0.000
 Approx polarizability: 163.684 -31.364 100.807   3.318  -2.580  88.727
 No NMR shielding tensors so no spin-rotation constants.
 Leave Link  601 at Tue Oct 27 19:03:33 2020, MaxMem=  4294967296 cpu:               1.9 elap:               0.1
 (Enter /n/sw/g16_nehalem/g16/l701.exe)
 ... and contract with generalized density number  0.
 Compute integral second derivatives.
 R6Disp: Adding Grimme-D3(BJ) dispersion energy 2nd derivatives to the Hessian.
 Leave Link  701 at Tue Oct 27 19:03:33 2020, MaxMem=  4294967296 cpu:               2.5 elap:               0.2
 (Enter /n/sw/g16_nehalem/g16/l702.exe)
 L702 exits ... SP integral derivatives will be done elsewhere.
 Leave Link  702 at Tue Oct 27 19:03:33 2020, MaxMem=  4294967296 cpu:               0.3 elap:               0.0
 (Enter /n/sw/g16_nehalem/g16/l703.exe)
 Integral derivatives from FoFJK, PRISM(SPDF).
 Compute integral second derivatives, UseDBF=F ICtDFT=           0.
 Calling FoFJK, ICntrl=    100147 FMM=F ISym2X=0 I1Cent= 0 IOpClX= 0 NMat=1 NMatS=1 NMatT=0.
 FoFJK:  IHMeth= 1 ICntrl=  100147 DoSepK=F KAlg= 0 I1Cent=           0 FoldK=F
 IRaf=         0 NMat=       1 IRICut=       1 DoRegI=T DoRafI=F ISym2E= 0 IDoP0=0 IntGTp=1.
 FoFCou: FMM=F IPFlag=           0 FMFlag=      100000 FMFlg1=         800
         NFxFlg=           0 DoJE=F BraDBF=F KetDBF=F FulRan=T
         wScrn=  0.000000 ICntrl=    100147 IOpCl=  0 I1Cent=           0 NGrid=           0
         NMat0=    1 NMatS0=      1 NMatT0=    0 NMatD0=    1 NMtDS0=    0 NMtDT0=    0
 Symmetry not used in FoFCou.
 Leave Link  703 at Tue Oct 27 19:03:41 2020, MaxMem=  4294967296 cpu:             122.0 elap:               7.7
 (Enter /n/sw/g16_nehalem/g16/l716.exe)
 Dipole        = 1.03785482D-01-2.39576015D+00 1.25996751D+00
 Polarizability= 0.00000000D+00 0.00000000D+00 0.00000000D+00
                 0.00000000D+00 0.00000000D+00 0.00000000D+00
 ***** Axes restored to original set *****
 -------------------------------------------------------------------
 Center     Atomic                   Forces (Hartrees/Bohr)
 Number     Number              X              Y              Z
 -------------------------------------------------------------------
      1        6           0.000169679    0.000155122    0.000079634
      2        8          -0.000117017   -0.000075339   -0.000062554
      3        6          -0.000066812   -0.000048765    0.000005105
      4        1          -0.000005000    0.000002156   -0.000003350
      5        1           0.000002637    0.000005127    0.000005457
      6        1           0.000005080    0.000006505   -0.000008854
      7       17           0.000496023   -0.000150708    0.000217617
      8        7           0.000092889   -0.000012092    0.000018332
      9        7          -0.000050655    0.000012440   -0.000016692
     10        7          -0.000023475    0.000083644   -0.000037133
     11       11          -0.000503349    0.000021911   -0.000197562
 -------------------------------------------------------------------
 Cartesian Forces:  Max     0.000503349 RMS     0.000147670
 Force constants in Cartesian coordinates: 
                1             2             3             4             5 
      1  0.607961D+00
      2 -0.355184D+00  0.427637D+00
      3  0.163604D+00 -0.516796D-01  0.380433D+00
      4 -0.424046D+00  0.254247D+00 -0.190393D+00  0.469422D+00
      5  0.256666D+00 -0.240813D+00  0.119257D+00 -0.285771D+00  0.250453D+00
      6 -0.229053D+00  0.145956D+00 -0.209104D+00  0.249141D+00 -0.153483D+00
      7 -0.114062D+00  0.613159D-01  0.318480D-01 -0.190194D-01  0.282221D-01
      8  0.561932D-01 -0.135003D+00 -0.422210D-01  0.307591D-01 -0.104091D-01
      9  0.359550D-01 -0.437022D-01 -0.102294D+00 -0.197474D-01  0.141730D-01
     10 -0.103467D-01  0.141682D-01 -0.171679D-01 -0.255165D-02  0.377099D-02
     11  0.615946D-02 -0.142089D-01  0.181850D-01  0.299584D-02 -0.151195D-02
     12  0.336436D-02 -0.115486D-01  0.122445D-01  0.410522D-02 -0.142485D-02
     13 -0.216416D-01 -0.802748D-02  0.634534D-02  0.297049D-02  0.167512D-02
     14  0.200981D-01  0.106281D-01 -0.678475D-02 -0.174658D-02 -0.211002D-02
     15  0.115024D-01  0.580067D-02 -0.484306D-02 -0.162990D-02  0.798465D-03
     16  0.887760D-02  0.111032D-01  0.166668D-01  0.388656D-03 -0.170840D-02
     17 -0.118542D-01 -0.112063D-01 -0.170658D-01  0.151572D-03  0.197700D-02
     18 -0.627698D-02 -0.721797D-02 -0.134246D-01 -0.180396D-03  0.248061D-02
     19 -0.297186D-01  0.641818D-03 -0.413685D-02 -0.132606D-01 -0.419211D-03
     20  0.131521D-01 -0.465748D-01 -0.161415D-01 -0.367073D-02  0.189521D-01
     21  0.220694D-01 -0.284122D-01 -0.622140D-01 -0.493706D-01  0.104037D-01
     22 -0.200579D-01 -0.430060D-01  0.223534D-01 -0.154919D-01  0.226486D-01
     23  0.636620D-02  0.246581D-01 -0.110218D-01  0.521540D-02 -0.176010D-01
     24  0.255072D-02  0.804522D-03 -0.141506D-03  0.189136D-02  0.258056D-02
     25  0.817716D-02  0.278005D-01 -0.132214D-01  0.829678D-02 -0.164102D-01
     26  0.497853D-02  0.360387D-02 -0.285634D-02  0.127291D-02 -0.504927D-02
     27 -0.547672D-02 -0.850185D-02 -0.576260D-02  0.175315D-04  0.697538D-02
     28  0.519340D-02  0.255011D-01 -0.106041D-01  0.106828D-01 -0.105089D-01
     29 -0.245056D-02 -0.211629D-01  0.102388D-01 -0.105731D-01  0.111017D-01
     30 -0.140155D-02  0.162594D-02 -0.255363D-02  0.192310D-02 -0.203187D-02
     31 -0.103362D-01  0.114399D-01 -0.529443D-02 -0.173915D-01  0.183512D-02
     32  0.587546D-02  0.244098D-02  0.897117D-04  0.711978D-02 -0.498939D-02
     33  0.316242D-02 -0.312503D-02  0.765986D-02  0.424278D-02  0.270540D-03
                6             7             8             9            10 
      6  0.245245D+00
      7  0.374373D-02  0.526161D+00
      8 -0.382593D-02  0.221974D-01  0.547136D+00
      9  0.158996D-01  0.632087D-01 -0.295754D-01  0.580793D+00
     10  0.338891D-02 -0.669575D-01  0.548614D-01 -0.575644D-01  0.743733D-01
     11 -0.241230D-02  0.569418D-01 -0.177018D+00  0.128479D+00 -0.630954D-01
     12 -0.778679D-03 -0.623515D-01  0.134022D+00 -0.186881D+00  0.614212D-01
     13  0.572923D-03 -0.210617D+00 -0.103476D+00  0.728356D-01  0.969914D-02
     14  0.245437D-03 -0.995240D-01 -0.110078D+00  0.428591D-01 -0.185917D-01
     15 -0.615512D-03  0.733017D-01  0.447887D-01 -0.797318D-01  0.181982D-01
     16 -0.539914D-04 -0.112948D+00 -0.620819D-01 -0.105124D+00 -0.456741D-02
     17  0.208129D-02 -0.586560D-01 -0.107968D+00 -0.940437D-01  0.102821D-01
     18  0.164891D-02 -0.101168D+00 -0.953726D-01 -0.204903D+00 -0.854201D-02
     19 -0.402486D-01  0.614543D-02  0.651237D-02  0.731612D-02  0.326286D-03
     20  0.458616D-02 -0.686940D-02 -0.355807D-02 -0.197572D-01 -0.106890D-02
     21 -0.451521D-01 -0.133718D-01 -0.112973D-01 -0.200466D-01  0.197690D-03
     22 -0.131185D-01  0.286341D-02  0.432727D-02 -0.207140D-02 -0.164933D-02
     23  0.108691D-01 -0.325099D-02 -0.260735D-02  0.123269D-02  0.816243D-03
     24 -0.142898D-02  0.438075D-03 -0.447979D-04 -0.288503D-04  0.944591D-04
     25  0.101125D-01 -0.894206D-02 -0.582441D-02  0.407174D-02  0.425374D-04
     26  0.397053D-02 -0.219742D-02 -0.255478D-02  0.111688D-02 -0.533453D-04
     27 -0.122226D-02  0.470390D-02  0.340556D-02 -0.260915D-02 -0.481906D-04
     28  0.537279D-02 -0.304347D-02 -0.268272D-02  0.927682D-03  0.144863D-02
     29 -0.610019D-02  0.223564D-02  0.230229D-02 -0.804319D-03 -0.123282D-02
     30  0.157927D-02  0.111154D-03 -0.172331D-03  0.202436D-03  0.166030D-03
     31  0.101419D-01  0.419574D-03 -0.785698D-03  0.192748D-03  0.182616D-03
     32 -0.188762D-02 -0.414962D-03 -0.242644D-03  0.218984D-04  0.143270D-03
     33 -0.607091D-02 -0.464154D-03  0.292659D-03 -0.399974D-03 -0.143928D-03
               11            12            13            14            15 
     11  0.188850D+00
     12 -0.141149D+00  0.197143D+00
     13  0.429824D-02 -0.337870D-02  0.230284D+00
     14 -0.946219D-02  0.556815D-02  0.111153D+00  0.117465D+00
     15  0.893378D-02 -0.674286D-02 -0.828145D-01 -0.486921D-01  0.813437D-01
     16 -0.494176D-02 -0.512198D-02 -0.104562D-01 -0.102353D-01 -0.198511D-01
     17  0.131961D-01  0.159879D-01 -0.584356D-02 -0.700055D-02 -0.109916D-01
     18 -0.108437D-01 -0.133850D-01  0.573412D-02  0.670481D-02  0.113696D-01
     19 -0.749893D-03  0.404862D-03  0.951209D-03 -0.801914D-03 -0.941518D-03
     20  0.349575D-03 -0.114300D-02  0.632076D-03 -0.718631D-03 -0.104963D-02
     21 -0.151090D-02 -0.874986D-03 -0.448851D-03 -0.444394D-04 -0.454662D-03
     22  0.388464D-03  0.508129D-03  0.149352D-02 -0.159444D-03 -0.660091D-03
     23 -0.891266D-03  0.141329D-03 -0.110900D-02 -0.224347D-03  0.107041D-02
     24  0.196147D-03 -0.460954D-03  0.219067D-03  0.312089D-03 -0.300962D-03
     25 -0.156594D-02  0.106826D-02 -0.143573D-02 -0.420884D-04  0.177962D-02
     26  0.108456D-03 -0.520606D-03  0.195012D-03  0.112640D-02 -0.538620D-04
     27  0.144549D-03 -0.333365D-03  0.844828D-03  0.278285D-04  0.268288D-04
     28 -0.284017D-03  0.230653D-04 -0.102796D-02  0.193417D-04  0.892084D-03
     29  0.509115D-03  0.103165D-04  0.789730D-03  0.247805D-03 -0.781773D-03
     30 -0.139726D-03  0.557067D-04 -0.366130D-04 -0.211868D-03  0.583237D-04
     31 -0.146755D-03 -0.428847D-04 -0.218859D-03 -0.169731D-03  0.223109D-03
     32  0.790631D-04  0.557702D-04 -0.287582D-03  0.126259D-03  0.176862D-03
     33  0.116676D-03  0.137334D-04  0.126765D-03  0.157713D-04 -0.109613D-03
               16            17            18            19            20 
     16  0.119315D+00
     17  0.643950D-01  0.112673D+00
     18  0.109433D+00  0.106673D+00  0.218767D+00
     19 -0.446762D-03  0.152504D-02  0.123447D-02  0.378042D-01
     20  0.323767D-02 -0.133106D-02 -0.260489D-02  0.438041D-04  0.397407D-01
     21  0.401239D-02 -0.280903D-02 -0.110204D-02  0.371865D-01  0.377030D-01
     22 -0.776235D-03  0.170300D-03  0.170967D-02  0.304418D-02  0.521909D-02
     23  0.414838D-03 -0.208744D-03 -0.948349D-03 -0.362015D-02 -0.500026D-02
     24  0.213156D-03 -0.637944D-04  0.138887D-03 -0.607464D-03 -0.520477D-03
     25  0.238671D-03 -0.149211D-03 -0.939175D-03 -0.472061D-02 -0.691231D-02
     26  0.000000D+00 -0.218708D-03  0.591465D-03 -0.359497D-02 -0.366310D-02
     27 -0.219509D-03  0.373859D-03  0.116860D-02 -0.399198D-03 -0.840794D-03
     28  0.294116D-03  0.000000D+00 -0.955628D-03 -0.139780D-02 -0.331927D-02
     29 -0.304550D-03  0.719923D-04  0.767224D-03  0.121508D-02  0.301252D-02
     30 -0.617162D-04  0.669328D-04 -0.164321D-03  0.417363D-03  0.425640D-03
     31  0.801750D-04 -0.206984D-04 -0.491277D-04  0.127300D-02 -0.444143D-03
     32  0.121450D-03  0.152261D-04 -0.229113D-03 -0.751981D-03 -0.120902D-02
     33  0.107398D-03 -0.208676D-03 -0.114051D-03 -0.225727D-03 -0.657313D-03
               21            22            23            24            25 
     21  0.129456D+00
     22  0.224182D-02  0.126362D+01
     23 -0.172374D-02 -0.667140D+00  0.566194D+00
     24 -0.235403D-03 -0.466306D-03 -0.894352D-02  0.146621D+00
     25 -0.258171D-02 -0.664408D+00  0.349564D+00  0.149432D-02  0.739569D+00
     26 -0.176454D-02  0.356554D+00 -0.284881D+00 -0.392758D-03 -0.409504D+00
     27  0.275783D-02 -0.810933D-03  0.107169D-02 -0.723947D-01 -0.367992D-02
     28 -0.178990D-02 -0.576897D+00  0.316156D+00 -0.524385D-02 -0.683365D-01
     29  0.101569D-02  0.314149D+00 -0.266278D+00  0.298643D-02  0.679593D-01
     30  0.121964D-02 -0.495699D-02  0.260807D-02 -0.707115D-01 -0.206699D-02
     31  0.185504D-02  0.826053D-02 -0.341280D-02 -0.583542D-03 -0.848090D-02
     32 -0.156024D-02  0.684898D-02 -0.131596D-01  0.308559D-02 -0.491493D-02
     33 -0.335363D-02 -0.472880D-02  0.564413D-02 -0.105745D-02  0.396270D-02
               26            27            28            29            30 
     26  0.289339D+00
     27 -0.102389D-02  0.437485D-01
     28  0.502465D-01  0.410910D-02  0.636427D+00
     29  0.816408D-04 -0.213823D-02 -0.365870D+00  0.305976D+00
     30  0.189651D-02  0.346199D-01  0.334779D-02 -0.181849D-01  0.420839D-01
     31  0.210373D-02  0.959114D-03 -0.334278D-02 -0.591811D-02  0.255843D-02
     32  0.210747D-02  0.505899D-03 -0.925867D-02 -0.358616D-01  0.141176D-01
     33 -0.963403D-03  0.000000D+00  0.392092D-02  0.129910D-01 -0.638964D-02
               31            32            33 
     31  0.295544D-01
     32 -0.448081D-02  0.506932D-01
     33 -0.996039D-02 -0.143763D-01  0.982126D-02
 FormGI is forming the generalized inverse of G from B-inverse, IUseBI=4.
 Force constants in internal coordinates: 
                1             2             3             4             5 
      1  0.821527D+00
      2  0.302451D-01  0.297417D+00
      3  0.655355D-01  0.148958D-01  0.153693D+00
      4  0.246075D-01  0.403291D-02 -0.136631D-03  0.475781D-01
      5 -0.174229D-02  0.193867D-02  0.242849D-03 -0.220695D-02  0.361215D+00
      6 -0.943212D-03  0.694019D-02  0.183788D-03  0.211867D-02  0.226815D-02
      7  0.300980D-03  0.288620D-02  0.109169D-03 -0.528818D-03  0.168774D-02
      8 -0.133468D-01 -0.277353D-02 -0.327124D-02  0.824915D-03  0.177288D-02
      9  0.883034D-02 -0.423551D-02  0.311628D-02 -0.256569D-01  0.920297D-03
     10  0.439075D-02  0.322398D-02  0.728150D-02  0.730366D-02 -0.433302D-03
     11  0.275743D-01  0.138666D-01 -0.457532D-01 -0.354876D-02  0.603124D-02
     12  0.795667D-02 -0.228546D-01  0.261754D-01 -0.159058D-02 -0.381463D-03
     13 -0.340056D-01  0.960405D-02  0.196931D-01  0.300695D-02 -0.504821D-02
     14  0.497127D-01  0.166945D-01  0.156335D-01  0.577689D-01 -0.856770D-02
     15  0.742209D-02  0.233522D-01  0.668778D-03  0.702936D-03  0.263227D-02
     16 -0.335109D-02  0.945135D-02 -0.322319D-03  0.638776D-03 -0.517257D-02
     17 -0.185354D-02  0.158623D-01  0.748499D-02 -0.231361D-03 -0.519997D-02
     18 -0.122862D-02 -0.175555D-01 -0.606008D-03 -0.176122D-03  0.443959D-02
     19 -0.206885D-02 -0.162401D-01 -0.361247D-02 -0.280390D-03  0.421973D-02
     20  0.105049D-02 -0.143582D-01 -0.354234D-02 -0.647997D-03 -0.121934D-02
     21  0.453280D-01  0.147116D-01  0.319603D-01  0.136895D-01 -0.436335D-02
     22  0.879300D-01  0.348266D-01  0.433420D-01  0.759750D-01 -0.128757D-01
     23  0.174099D-01  0.609464D-02  0.143541D-01 -0.493617D-02 -0.134806D-02
     24  0.108715D-01  0.357305D-03  0.355890D-02 -0.528347D-02  0.174957D-04
     25 -0.705089D-03 -0.216808D-02  0.552589D-02 -0.156475D-01  0.305224D-02
     26 -0.189136D-02 -0.585982D-02  0.856204D-03 -0.665153D-02  0.125841D-02
     27 -0.291602D-02  0.249686D-02 -0.287311D-02  0.505350D-02 -0.115108D-02
     28 -0.210853D-02  0.804437D-03 -0.341925D-02  0.565556D-02  0.260691D-02
     29 -0.376910D-02 -0.218536D-02 -0.366250D-02  0.511331D-02 -0.464299D-02
     30  0.360259D-02  0.146499D-02  0.308560D-02 -0.421023D-02  0.114080D-02
     31  0.441007D-02 -0.227431D-03  0.253947D-02 -0.360816D-02  0.489879D-02
     32  0.274951D-02 -0.321723D-02  0.229621D-02 -0.415041D-02 -0.235111D-02
     33  0.410840D-01  0.444439D-02  0.117072D-01  0.554658D-02 -0.168912D-02
     34  0.145664D-01 -0.184654D-02  0.418998D-02 -0.889237D-02  0.833493D-03
                6             7             8             9            10 
      6  0.334905D+00
      7  0.205170D-02  0.353633D+00
      8 -0.192042D-02  0.748650D-03  0.981671D+00
      9 -0.350676D-04 -0.432848D-03  0.106360D+00  0.898380D+00
     10  0.320773D-03 -0.232809D-03 -0.717511D-02 -0.739167D-02  0.722700D-01
     11 -0.241741D-03 -0.494595D-02  0.262816D-02  0.412221D-02 -0.218383D-02
     12  0.486662D-03 -0.674684D-03  0.827331D-03 -0.304471D-02  0.132888D-02
     13 -0.807002D-03  0.575651D-02 -0.137037D-02 -0.715787D-03 -0.137313D-02
     14  0.708888D-02 -0.303057D-02 -0.981255D-02 -0.710414D-01  0.228760D-01
     15 -0.682024D-02 -0.567289D-02 -0.193827D-03 -0.293897D-02  0.107253D-03
     16  0.607543D-02 -0.513353D-02 -0.896193D-03  0.203155D-02  0.195747D-02
     17 -0.609793D-02  0.337358D-02  0.817156D-03 -0.110502D-02 -0.796591D-03
     18  0.442178D-02 -0.132339D-02  0.179218D-03  0.796526D-03 -0.935127D-03
     19 -0.162343D-02  0.426189D-02 -0.116723D-04  0.605117D-03  0.347594D-03
     20  0.419902D-02  0.443075D-02  0.942358D-04  0.641556D-03 -0.656936D-03
     21  0.369074D-02 -0.191438D-02  0.147447D-01 -0.346561D-01  0.857494D-01
     22  0.113981D-01 -0.459807D-02 -0.116611D-01 -0.143279D+00  0.999455D-01
     23  0.128838D-02 -0.116565D-02  0.199304D-01 -0.167222D-01  0.200177D-01
     24 -0.935094D-03  0.172389D-02  0.445151D-02 -0.155552D-02  0.156099D-02
     25 -0.391913D-02  0.292429D-02  0.930566D-02  0.950899D-02 -0.578377D-02
     26 -0.130121D-02  0.135602D-02  0.262180D-03  0.811777D-02  0.429904D-02
     27 -0.412327D-02  0.390810D-02 -0.489486D-02 -0.171995D-02  0.483295D-02
     28  0.104049D-02 -0.429622D-02 -0.535187D-02 -0.121909D-02  0.497799D-02
     29  0.606952D-02 -0.228208D-04 -0.528874D-02  0.727340D-04  0.485169D-02
     30 -0.647042D-02  0.460691D-02  0.409921D-02 -0.745932D-03 -0.450212D-02
     31 -0.130666D-02 -0.359741D-02  0.364220D-02 -0.245071D-03 -0.435707D-02
     32  0.372236D-02  0.675987D-03  0.370532D-02  0.104675D-02 -0.448338D-02
     33 -0.139541D-02  0.434644D-02  0.156245D-02 -0.274903D-01  0.163955D-01
     34 -0.265914D-02  0.396454D-02  0.272639D-02  0.318037D-02 -0.429923D-02
               11            12            13            14            15 
     11  0.139850D+00
     12 -0.775152D-01  0.152947D+00
     13 -0.578903D-01 -0.785129D-01  0.136459D+00
     14 -0.987321D-02 -0.541585D-02  0.763568D-02  0.214582D+00
     15  0.159647D-01 -0.568543D-02 -0.939659D-02  0.313722D-02  0.113355D+00
     16  0.965760D-03  0.125089D-02 -0.320839D-02  0.129811D-02 -0.189830D-01
     17 -0.135026D-01 -0.292614D-02  0.166101D-01 -0.220917D-02 -0.225283D-01
     18 -0.632784D-02  0.269067D-02  0.362080D-02 -0.116965D-03 -0.387451D-01
     19 -0.124363D-03  0.249646D-02 -0.271746D-02 -0.707027D-03 -0.402012D-01
     20  0.301003D-02  0.215007D-02 -0.487956D-02 -0.140921D-02  0.756891D-02
     21 -0.121280D-01  0.201479D-02 -0.177696D-02  0.101210D+00 -0.122889D-02
     22 -0.250487D-01  0.197696D-02  0.363198D-02  0.315008D+00  0.319110D-02
     23 -0.473153D-02  0.115711D-02 -0.131629D-02  0.265607D-01 -0.937586D-03
     24 -0.531122D-03 -0.327032D-02  0.203195D-02 -0.160926D-01 -0.918631D-03
     25  0.741229D-02 -0.154214D-01  0.110631D-01 -0.679940D-01 -0.743268D-03
     26 -0.724222D-04  0.710140D-02 -0.101874D-01 -0.351749D-01 -0.288066D-02
     27 -0.101961D-02 -0.604072D-02  0.437962D-02  0.182063D-01 -0.265754D-02
     28  0.132575D-02 -0.534232D-02  0.121918D-02  0.207399D-01  0.538359D-02
     29 -0.204912D-02 -0.370304D-02  0.283289D-02  0.185611D-01 -0.878028D-02
     30  0.179015D-02  0.472141D-02 -0.367975D-02 -0.151208D-01 -0.287853D-03
     31  0.413551D-02  0.541981D-02 -0.684018D-02 -0.125873D-01  0.775327D-02
     32  0.760648D-03  0.705909D-02 -0.522647D-02 -0.147660D-01 -0.641060D-02
     33 -0.472403D-02 -0.767108D-02  0.503843D-02  0.276217D-01 -0.283161D-02
     34  0.108943D-02 -0.682506D-02  0.365945D-02 -0.363396D-01 -0.212519D-02
               16            17            18            19            20 
     16  0.108173D+00
     17 -0.178566D-01  0.111360D+00
     18 -0.401963D-01  0.835233D-02  0.548573D-01
     19  0.845530D-02 -0.406255D-01  0.737068D-02  0.563547D-01
     20 -0.379310D-01 -0.380182D-01  0.716831D-02  0.750329D-02  0.532987D-01
     21  0.941591D-02 -0.412574D-02 -0.290674D-02  0.167456D-02 -0.272074D-02
     22  0.116671D-01 -0.547852D-02 -0.421950D-02 -0.630801D-04 -0.495458D-02
     23  0.474422D-02 -0.230953D-02 -0.140884D-02  0.751951D-03 -0.775265D-03
     24  0.117900D-02  0.110045D-02 -0.221046D-04  0.402755D-03 -0.174400D-02
     25 -0.139088D-02  0.252887D-02  0.432999D-03 -0.533079D-04 -0.797174D-03
     26  0.352193D-02 -0.103188D-02 -0.195072D-03  0.186959D-02 -0.127130D-02
     27 -0.407110D-02  0.685930D-02 -0.993205D-02  0.102981D-01 -0.647505D-03
     28  0.319497D-02 -0.748469D-02  0.901324D-02  0.729391D-03 -0.111300D-01
     29  0.881857D-02 -0.936023D-03 -0.379413D-03 -0.815846D-02  0.996652D-02
     30 -0.821666D-02  0.780198D-02 -0.937394D-02  0.915433D-02  0.730301D-03
     31 -0.950594D-03 -0.654202D-02  0.957136D-02 -0.414408D-03 -0.975223D-02
     32  0.467301D-02  0.665401D-05  0.178701D-03 -0.930226D-02  0.113443D-01
     33  0.381069D-02  0.236942D-02  0.116484D-03  0.153056D-02 -0.500927D-02
     34  0.114390D-02  0.237006D-02  0.522824D-03  0.105565D-02 -0.299698D-02
               21            22            23            24            25 
     21  0.324254D+00
     22  0.382822D+00  0.740830D+00
     23  0.113381D+00  0.110469D+00  0.240184D+00
     24  0.104275D-01 -0.938291D-02  0.165831D-02  0.206215D+00
     25 -0.402721D-01 -0.105954D+00 -0.209403D-01  0.158119D-01  0.403509D-01
     26  0.127373D-01 -0.203665D-01  0.954015D-03  0.234148D-01  0.253673D-01
     27  0.257500D-01  0.433337D-01  0.101735D-01  0.435342D-02 -0.528824D-02
     28  0.273588D-01  0.473715D-01  0.108631D-01  0.451888D-02 -0.607086D-02
     29  0.271115D-01  0.449739D-01  0.113202D-01  0.371387D-02 -0.639680D-02
     30 -0.247390D-01 -0.391757D-01 -0.105597D-01 -0.369945D-02  0.547119D-02
     31 -0.231302D-01 -0.351379D-01 -0.987008D-02 -0.353399D-02  0.468857D-02
     32 -0.233775D-01 -0.375356D-01 -0.941294D-02 -0.433900D-02  0.436262D-02
     33  0.604586D-01  0.873127D-01  0.492505D-02  0.553340D-01  0.347235D-01
     34 -0.196562D-01 -0.585297D-01 -0.173851D-01  0.502900D-01  0.409163D-01
               26            27            28            29            30 
     26  0.409143D-01
     27  0.603973D-02  0.174097D-01
     28  0.629497D-02  0.112690D-02  0.173562D-01
     29  0.618434D-02  0.188088D-02  0.172223D-02  0.180372D-01
     30 -0.660748D-02  0.507080D-02 -0.117171D-01 -0.111254D-01  0.178495D-01
     31 -0.635224D-02 -0.112120D-01  0.451226D-02 -0.112841D-01  0.106165D-02
     32 -0.646286D-02 -0.104581D-01 -0.111217D-01  0.503086D-02  0.165330D-02
     33  0.667384D-01  0.176677D-01  0.185142D-01  0.160004D-01 -0.149008D-01
     34  0.497083D-01  0.557423D-02  0.566778D-02  0.405509D-02 -0.435236D-02
               31            32            33            34 
     31  0.167859D-01
     32  0.989616D-03  0.171422D-01
     33 -0.140543D-01 -0.165681D-01  0.178874D+00
     34 -0.425881D-02 -0.587150D-02  0.113383D+00  0.104890D+00
 Leave Link  716 at Tue Oct 27 19:03:41 2020, MaxMem=  4294967296 cpu:               0.4 elap:               0.0
 (Enter /n/sw/g16_nehalem/g16/l103.exe)

 GradGradGradGradGradGradGradGradGradGradGradGradGradGradGradGradGradGrad
 Berny optimization.
 Red2BG is reusing G-inverse.
 Internal  Forces:  Max     0.001382392 RMS     0.000359437
 Search for a saddle point.
 Step number   1 out of a maximum of   44
 All quantities printed in internal units (Hartrees-Bohrs-Radians)
 Swapping is turned off.
 Second derivative matrix not updated -- analytic derivatives used.
 ITU=  0
     Eigenvalues ---    0.00046   0.00230   0.01152   0.01679   0.02667
     Eigenvalues ---    0.02993   0.04828   0.05538   0.05829   0.10562
     Eigenvalues ---    0.13084   0.13962   0.14434   0.14967   0.16404
     Eigenvalues ---    0.21608   0.24524   0.25497   0.31595   0.33502
     Eigenvalues ---    0.35186   0.36224   0.36731   0.74806   0.84551
     Eigenvalues ---    1.02528   1.29335
 Eigenvectors required to have negative eigenvalues:
                          D1        D2        D9        A4        D10
   1                    0.53273   0.50475  -0.50105   0.36295   0.23186
                          R4        R3        A11       D4        D5
   1                   -0.10696  -0.05640   0.05132  -0.04255  -0.04174
 Eigenvalue     1 is   4.65D-04 should be less than     0.000000 Eigenvector:
                          D1        D2        D9        A4        D10
   1                    0.53273   0.50475  -0.50105   0.36295   0.23186
                          R4        R3        A11       D4        D5
   1                   -0.10696  -0.05640   0.05132  -0.04255  -0.04174
 RFO step:  Lambda0=1.056920956D-03 Lambda=-4.45191434D-05.
 Linear search not attempted -- option 19 set.
 Iteration  1 RMS(Cart)=  0.01498829 RMS(Int)=  0.00021790
 Iteration  2 RMS(Cart)=  0.00050602 RMS(Int)=  0.00000023
 Iteration  3 RMS(Cart)=  0.00000016 RMS(Int)=  0.00000020
 ITry= 1 IFail=0 DXMaxC= 5.32D-02 DCOld= 1.00D+10 DXMaxT= 5.00D-02 DXLimC= 3.00D+00 Rises=F
 Variable       Old X    -DE/DX   Delta X   Delta X   Delta X     New X
                                 (Linear)    (Quad)   (Total)
    R1        2.29126  -0.00059   0.00000   0.00023   0.00023   2.29149
    R2        2.82937   0.00002   0.00000  -0.00023  -0.00023   2.82913
    R3        3.43186  -0.00029   0.00000  -0.00317  -0.00317   3.42869
    R4        4.21446  -0.00039   0.00000  -0.01061  -0.01061   4.20385
    R5        2.05588   0.00001   0.00000  -0.00009  -0.00009   2.05579
    R6        2.07581   0.00000   0.00000   0.00005   0.00005   2.07587
    R7        2.06155   0.00000   0.00000  -0.00003  -0.00003   2.06152
    R8        2.21897   0.00005   0.00000   0.00010   0.00010   2.21907
    R9        2.25527  -0.00004   0.00000   0.00012   0.00012   2.25539
   R10        4.17037   0.00009   0.00000  -0.00033  -0.00033   4.17004
    A1        2.20841   0.00056   0.00000   0.00122   0.00122   2.20963
    A2        2.05851  -0.00105   0.00000  -0.00402  -0.00402   2.05449
    A3        1.98508   0.00052   0.00000   0.00285   0.00285   1.98793
    A4        2.27172  -0.00138   0.00000  -0.00634  -0.00634   2.26537
    A5        1.93430   0.00000   0.00000  -0.00012  -0.00012   1.93418
    A6        1.88494   0.00001   0.00000  -0.00021  -0.00021   1.88473
    A7        1.89394  -0.00001   0.00000   0.00011   0.00011   1.89405
    A8        1.91119   0.00000   0.00000   0.00029   0.00029   1.91148
    A9        1.92382   0.00000   0.00000  -0.00003  -0.00003   1.92379
   A10        1.91515   0.00000   0.00000  -0.00004  -0.00004   1.91511
   A11        1.88085   0.00003   0.00000  -0.00809  -0.00809   1.87276
   A12        1.60235   0.00004   0.00000   0.01826   0.01826   1.62061
   A13        3.11138  -0.00001   0.00000   0.00083   0.00083   3.11221
   A14        3.13787  -0.00005   0.00000  -0.00108  -0.00108   3.13679
    D1       -2.53080  -0.00020   0.00000   0.01765   0.01765  -2.51315
    D2        0.89438  -0.00040   0.00000   0.01707   0.01707   0.91145
    D3        2.65474   0.00002   0.00000   0.00051   0.00051   2.65526
    D4       -1.53500   0.00002   0.00000   0.00066   0.00066  -1.53434
    D5        0.54003   0.00002   0.00000   0.00056   0.00056   0.54059
    D6       -0.76027  -0.00001   0.00000   0.00012   0.00013  -0.76014
    D7        1.33318  -0.00001   0.00000   0.00027   0.00027   1.33345
    D8       -2.87498   0.00000   0.00000   0.00017   0.00017  -2.87481
    D9        0.84775  -0.00002   0.00000  -0.03826  -0.03826   0.80949
   D10       -0.22226  -0.00003   0.00000   0.03379   0.03379  -0.18847
         Item               Value     Threshold  Converged?
 Maximum Force            0.001382     0.000450     NO 
 RMS     Force            0.000359     0.000300     NO 
 Maximum Displacement     0.053192     0.001800     NO 
 RMS     Displacement     0.014907     0.001200     NO 
 Predicted change in Energy= 1.261454D-05
 Lowest energy point so far.  Saving SCF results.
 GradGradGradGradGradGradGradGradGradGradGradGradGradGradGradGradGradGrad

 Leave Link  103 at Tue Oct 27 19:03:41 2020, MaxMem=  4294967296 cpu:               0.8 elap:               0.1
 (Enter /n/sw/g16_nehalem/g16/l202.exe)
                          Input orientation:                          
 ---------------------------------------------------------------------
 Center     Atomic      Atomic             Coordinates (Angstroms)
 Number     Number       Type             X           Y           Z
 ---------------------------------------------------------------------
      1          6           0       -0.961489   -0.126583    0.536616
      2          8           0       -0.096455   -0.749846    1.114253
      3          6           0       -1.889718    0.881164    1.140095
      4          1           0       -2.201818    1.612648    0.397803
      5          1           0       -2.770241    0.346023    1.520892
      6          1           0       -1.374863    1.376527    1.964488
      7         17           0       -1.484344   -0.723004   -1.095221
      8          7           0        1.356160    1.237398   -0.416620
      9          7           0        0.342703    1.829957   -0.389770
     10          7           0        2.369469    0.606950   -0.430231
     11         11           0        1.915216   -1.383601    0.406936
 ---------------------------------------------------------------------
                    Distance matrix (angstroms):
                    1          2          3          4          5
     1  C    0.000000
     2  O    1.212603   0.000000
     3  C    1.497113   2.424181   0.000000
     4  H    2.140703   3.244570   1.087875   0.000000
     5  H    2.112757   2.918119   1.098501   1.785713   0.000000
     6  H    2.114009   2.622725   1.090910   1.787207   1.790474
     7  Cl   1.814383   2.609354   2.781064   2.863418   3.104899
     8  N    2.853174   2.898759   3.617456   3.669238   4.644964
     9  N    2.527282   3.018332   2.867821   2.672467   3.942475
    10  N    3.545158   3.210468   4.547723   4.753287   5.503779
    11  Na   3.142028   2.224581   4.488229   5.091911   5.117226
                    6          7          8          9         10
     6  H    0.000000
     7  Cl   3.712389   0.000000
     8  N    3.625950   3.517405   0.000000
     9  N    2.949264   3.217665   1.174283   0.000000
    10  N    4.510759   4.130721   1.193501   2.367523   0.000000
    11  Na   4.568248   3.774900   2.803645   3.665309   2.206691
                   11
    11  Na   0.000000
 Stoichiometry    C2H3ClN3NaO
 Framework group  C1[X(C2H3ClN3NaO)]
 Deg. of freedom    27
 Full point group                 C1      NOp   1
 RotChk:  IX=0 Diff= 1.84D-02
 Largest Abelian subgroup         C1      NOp   1
 Largest concise Abelian subgroup C1      NOp   1
                         Standard orientation:                         
 ---------------------------------------------------------------------
 Center     Atomic      Atomic             Coordinates (Angstroms)
 Number     Number       Type             X           Y           Z
 ---------------------------------------------------------------------
      1          6           0       -0.965148   -0.131787    0.530328
      2          8           0       -0.103937   -0.764110    1.103817
      3          6           0       -1.893435    0.870781    1.142283
      4          1           0       -2.200795    1.611987    0.407696
      5          1           0       -2.776756    0.333174    1.512991
      6          1           0       -1.380759    1.354842    1.974709
      7         17           0       -1.482787   -0.707061   -1.110738
      8          7           0        1.359561    1.238095   -0.396900
      9          7           0        0.347406    1.832723   -0.366922
     10          7           0        2.371426    0.605418   -0.414101
     11         11           0        1.909084   -1.394064    0.396946
 ---------------------------------------------------------------------
 Rotational constants (GHZ):           1.9719531           1.1657345           1.0206664
 Leave Link  202 at Tue Oct 27 19:03:41 2020, MaxMem=  4294967296 cpu:               0.1 elap:               0.0
 (Enter /n/sw/g16_nehalem/g16/l301.exe)
 Standard basis: 6-31G(d) (6D, 7F)
 Ernie: Thresh=  0.10000D-02 Tol=  0.10000D-05 Strict=F.
 There are   134 symmetry adapted cartesian basis functions of A   symmetry.
 There are   134 symmetry adapted basis functions of A   symmetry.
   134 basis functions,   284 primitive gaussians,   134 cartesian basis functions
    36 alpha electrons       36 beta electrons
       nuclear repulsion energy       448.5973999092 Hartrees.
 IExCor=  402 DFT=T Ex+Corr=B3LYP ExCW=0 ScaHFX=  0.200000
 ScaDFX=  0.800000  0.720000  1.000000  0.810000 ScalE2=  1.000000  1.000000
 IRadAn=      5 IRanWt=     -1 IRanGd=            0 ICorTp=0 IEmpDi=141
 NAtoms=   11 NActive=   11 NUniq=   11 SFac= 1.00D+00 NAtFMM=   60 NAOKFM=F Big=F
 Integral buffers will be    131072 words long.
 Raffenetti 2 integral format.
 Two-electron integral symmetry is turned on.
 R6Disp:  Grimme-D3(BJ) Dispersion energy=       -0.0208824849 Hartrees.
 Nuclear repulsion after empirical dispersion term =      448.5765174243 Hartrees.
 Leave Link  301 at Tue Oct 27 19:03:41 2020, MaxMem=  4294967296 cpu:               1.0 elap:               0.1
 (Enter /n/sw/g16_nehalem/g16/l302.exe)
 NPDir=0 NMtPBC=     1 NCelOv=     1 NCel=       1 NClECP=     1 NCelD=      1
         NCelK=      1 NCelE2=     1 NClLst=     1 CellRange=     0.0.
 One-electron integrals computed using PRISM.
 One-electron integral symmetry used in STVInt
 NBasis=   134 RedAO= T EigKep=  1.53D-03  NBF=   134
 NBsUse=   134 1.00D-06 EigRej= -1.00D+00 NBFU=   134
 Precomputing XC quadrature grid using
 IXCGrd= 4 IRadAn=           5 IRanWt=          -1 IRanGd=           0 AccXCQ= 0.00D+00.
 Generated NRdTot=       0 NPtTot=           0 NUsed=           0 NTot=          32
 NSgBfM=   133   133   133   133   133 MxSgAt=    11 MxSgA2=    11.
 Leave Link  302 at Tue Oct 27 19:03:42 2020, MaxMem=  4294967296 cpu:               3.0 elap:               0.2
 (Enter /n/sw/g16_nehalem/g16/l303.exe)
 DipDrv:  MaxL=1.
 Leave Link  303 at Tue Oct 27 19:03:42 2020, MaxMem=  4294967296 cpu:               1.4 elap:               0.1
 (Enter /n/sw/g16_nehalem/g16/l401.exe)
 Initial guess from the checkpoint file:  "/scratch/Gau-40452.chk"
 B after Tr=     0.000000    0.000000    0.000000
         Rot=    0.999982   -0.005537    0.002331    0.000782 Ang=  -0.69 deg.
 Guess basis will be translated and rotated to current coordinates.
 JPrj=2 DoOrth=T DoCkMO=T.
 Generating alternative initial guess.
 ExpMin= 2.60D-02 ExpMax= 2.52D+04 ExpMxC= 3.78D+03 IAcc=3 IRadAn=         5 AccDes= 0.00D+00
 Harris functional with IExCor=  402 and IRadAn=       5 diagonalized for initial guess.
 HarFok:  IExCor=  402 AccDes= 0.00D+00 IRadAn=         5 IDoV= 1 UseB2=F ITyADJ=14
 ICtDFT=  3500011 ScaDFX=  1.000000  1.000000  1.000000  1.000000
 FoFCou: FMM=F IPFlag=           0 FMFlag=      100000 FMFlg1=           0
         NFxFlg=           0 DoJE=T BraDBF=F KetDBF=T FulRan=T
         wScrn=  0.000000 ICntrl=       500 IOpCl=  0 I1Cent=   200000004 NGrid=           0
         NMat0=    1 NMatS0=      1 NMatT0=    0 NMatD0=    1 NMtDS0=    0 NMtDT0=    0
 Petite list used in FoFCou.
 Harris En= -939.949057096533    
 Leave Link  401 at Tue Oct 27 19:03:42 2020, MaxMem=  4294967296 cpu:               5.5 elap:               0.4
 (Enter /n/sw/g16_nehalem/g16/l502.exe)
 Keep R1 ints in memory in canonical form, NReq=56246956.
 FoFCou: FMM=F IPFlag=           0 FMFlag=           0 FMFlg1=           0
         NFxFlg=           0 DoJE=F BraDBF=F KetDBF=F FulRan=T
         wScrn=  0.000000 ICntrl=       600 IOpCl=  0 I1Cent=           0 NGrid=           0
         NMat0=    1 NMatS0=   9045 NMatT0=    0 NMatD0=    1 NMtDS0=    0 NMtDT0=    0
 Symmetry not used in FoFCou.
 Two-electron integral symmetry not used.
 Closed shell SCF:
 Using DIIS extrapolation, IDIIS=  1040.
 NGot=  4294967296 LenX=  4254017214 LenY=  4253998817
 Requested convergence on RMS density matrix=1.00D-08 within 128 cycles.
 Requested convergence on MAX density matrix=1.00D-06.
 Requested convergence on             energy=1.00D-06.
 No special actions if energy rises.

 Cycle   1  Pass 1  IDiag  1:
 E= -940.007334858544    
 DIIS: error= 2.01D-03 at cycle   1 NSaved=   1.
 NSaved= 1 IEnMin= 1 EnMin= -940.007334858544     IErMin= 1 ErrMin= 2.01D-03
 ErrMax= 2.01D-03  0.00D+00 EMaxC= 1.00D-01 BMatC= 3.88D-04 BMatP= 3.88D-04
 IDIUse=3 WtCom= 9.80D-01 WtEn= 2.01D-02
 Coeff-Com:  0.100D+01
 Coeff-En:   0.100D+01
 Coeff:      0.100D+01
 Gap=     0.876 Goal=   None    Shift=    0.000
 GapD=    0.876 DampG=2.000 DampE=1.000 DampFc=2.0000 IDamp=-1.
 RMSDP=2.41D-04 MaxDP=5.12D-03              OVMax= 8.95D-03

 Cycle   2  Pass 1  IDiag  1:
 E= -940.007992509954     Delta-E=       -0.000657651410 Rises=F Damp=F
 DIIS: error= 2.26D-04 at cycle   2 NSaved=   2.
 NSaved= 2 IEnMin= 2 EnMin= -940.007992509954     IErMin= 2 ErrMin= 2.26D-04
 ErrMax= 2.26D-04  0.00D+00 EMaxC= 1.00D-01 BMatC= 7.54D-06 BMatP= 3.88D-04
 IDIUse=3 WtCom= 9.98D-01 WtEn= 2.26D-03
 Coeff-Com: -0.665D-01 0.107D+01
 Coeff-En:   0.000D+00 0.100D+01
 Coeff:     -0.664D-01 0.107D+01
 Gap=     0.133 Goal=   None    Shift=    0.000
 RMSDP=4.55D-05 MaxDP=9.10D-04 DE=-6.58D-04 OVMax= 1.32D-03

 Cycle   3  Pass 1  IDiag  1:
 E= -940.007990627373     Delta-E=        0.000001882581 Rises=F Damp=F
 DIIS: error= 1.68D-04 at cycle   3 NSaved=   3.
 NSaved= 3 IEnMin= 2 EnMin= -940.007992509954     IErMin= 3 ErrMin= 1.68D-04
 ErrMax= 1.68D-04  0.00D+00 EMaxC= 1.00D-01 BMatC= 1.22D-05 BMatP= 7.54D-06
 IDIUse=3 WtCom= 4.36D-01 WtEn= 5.64D-01
 Coeff-Com: -0.480D-01 0.649D+00 0.399D+00
 Coeff-En:   0.000D+00 0.562D+00 0.438D+00
 Coeff:     -0.209D-01 0.600D+00 0.421D+00
 Gap=     0.133 Goal=   None    Shift=    0.000
 RMSDP=3.60D-05 MaxDP=8.48D-04 DE= 1.88D-06 OVMax= 1.79D-03

 Cycle   4  Pass 1  IDiag  1:
 E= -940.007997147444     Delta-E=       -0.000006520071 Rises=F Damp=F
 DIIS: error= 1.71D-04 at cycle   4 NSaved=   4.
 NSaved= 4 IEnMin= 4 EnMin= -940.007997147444     IErMin= 3 ErrMin= 1.68D-04
 ErrMax= 1.71D-04  0.00D+00 EMaxC= 1.00D-01 BMatC= 5.49D-06 BMatP= 7.54D-06
 IDIUse=3 WtCom= 9.98D-01 WtEn= 1.71D-03
 Coeff-Com: -0.226D-01 0.286D+00 0.356D+00 0.380D+00
 Coeff-En:   0.000D+00 0.000D+00 0.344D+00 0.656D+00
 Coeff:     -0.226D-01 0.286D+00 0.356D+00 0.381D+00
 Gap=     0.133 Goal=   None    Shift=    0.000
 RMSDP=1.65D-05 MaxDP=5.13D-04 DE=-6.52D-06 OVMax= 1.09D-03

 Cycle   5  Pass 1  IDiag  1:
 E= -940.008001341161     Delta-E=       -0.000004193718 Rises=F Damp=F
 DIIS: error= 5.52D-05 at cycle   5 NSaved=   5.
 NSaved= 5 IEnMin= 5 EnMin= -940.008001341161     IErMin= 5 ErrMin= 5.52D-05
 ErrMax= 5.52D-05  0.00D+00 EMaxC= 1.00D-01 BMatC= 8.79D-07 BMatP= 5.49D-06
 IDIUse=1 WtCom= 1.00D+00 WtEn= 0.00D+00
 Coeff-Com: -0.923D-02 0.112D+00 0.216D+00 0.310D+00 0.372D+00
 Coeff:     -0.923D-02 0.112D+00 0.216D+00 0.310D+00 0.372D+00
 Gap=     0.133 Goal=   None    Shift=    0.000
 RMSDP=5.94D-06 MaxDP=1.52D-04 DE=-4.19D-06 OVMax= 2.81D-04

 Cycle   6  Pass 1  IDiag  1:
 E= -940.008002093738     Delta-E=       -0.000000752576 Rises=F Damp=F
 DIIS: error= 7.83D-06 at cycle   6 NSaved=   6.
 NSaved= 6 IEnMin= 6 EnMin= -940.008002093738     IErMin= 6 ErrMin= 7.83D-06
 ErrMax= 7.83D-06  0.00D+00 EMaxC= 1.00D-01 BMatC= 2.63D-08 BMatP= 8.79D-07
 IDIUse=1 WtCom= 1.00D+00 WtEn= 0.00D+00
 Coeff-Com: -0.230D-02 0.245D-01 0.796D-01 0.132D+00 0.206D+00 0.560D+00
 Coeff:     -0.230D-02 0.245D-01 0.796D-01 0.132D+00 0.206D+00 0.560D+00
 Gap=     0.133 Goal=   None    Shift=    0.000
 RMSDP=1.36D-06 MaxDP=2.95D-05 DE=-7.53D-07 OVMax= 4.69D-05

[...]
 Search for a saddle point.
 Step number  44 out of a maximum of   44
 All quantities printed in internal units (Hartrees-Bohrs-Radians)
 Swapping is turned off.
 Update second derivatives using D2CorX and points   42   43   44
 ITU=  0  0  0  0  0  0  0  0  0  0  0  0  0  0  0  0  0  0  0  0
 ITU=  0  0  0  0  0  0  0  0  0  0  0  0  0  0  0
     Eigenvalues ---   -0.00101   0.00278   0.01468   0.02265   0.03115
     Eigenvalues ---    0.03441   0.04833   0.05543   0.05834   0.10578
     Eigenvalues ---    0.13030   0.14004   0.14407   0.14958   0.16578
     Eigenvalues ---    0.21470   0.24526   0.25345   0.31556   0.33548
     Eigenvalues ---    0.35384   0.36245   0.38454   0.75050   0.84562
     Eigenvalues ---    1.02778   1.32017
 Eigenvectors required to have negative eigenvalues:
                          D9        D1        D2        D7        D4
   1                   -0.34405   0.33923   0.33408   0.33243   0.32704
                          D8        D6        D5        D3        A4
   1                    0.32675   0.32181   0.32136   0.31642   0.12839
 RFO step:  Lambda0=1.754035461D-05 Lambda=-4.40325408D-04.
 Linear search not attempted -- option 19 set.
 Maximum step size (   0.050) exceeded in Quadratic search.
    -- Step size scaled by   0.780
 Iteration  1 RMS(Cart)=  0.07802050 RMS(Int)=  0.00355568
 Iteration  2 RMS(Cart)=  0.00823657 RMS(Int)=  0.00003659
 Iteration  3 RMS(Cart)=  0.00003982 RMS(Int)=  0.00002880
 Iteration  4 RMS(Cart)=  0.00000000 RMS(Int)=  0.00002880
 ITry= 1 IFail=0 DXMaxC= 2.02D-01 DCOld= 1.00D+10 DXMaxT= 5.00D-02 DXLimC= 3.00D+00 Rises=F
 Variable       Old X    -DE/DX   Delta X   Delta X   Delta X     New X
                                 (Linear)    (Quad)   (Total)
    R1        2.28239   0.00082   0.00000   0.00126   0.00126   2.28365
    R2        2.82906   0.00025   0.00000  -0.00031  -0.00031   2.82875
    R3        3.38211   0.00014   0.00000   0.00585   0.00585   3.38796
    R4        4.22718   0.00002   0.00000   0.00333   0.00333   4.23051
    R5        2.07326  -0.00047   0.00000  -0.00139  -0.00139   2.07187
    R6        2.05868  -0.00002   0.00000   0.00116   0.00116   2.05984
    R7        2.06562   0.00024   0.00000  -0.00009  -0.00009   2.06552
    R8        2.21263   0.00033   0.00000   0.00093   0.00093   2.21356
    R9        2.26668  -0.00034   0.00000  -0.00125  -0.00125   2.26543
   R10        4.12423   0.00023   0.00000   0.00458   0.00458   4.12881
    A1        2.19627  -0.00029   0.00000  -0.00124  -0.00133   2.19494
    A2        2.07516  -0.00030   0.00000  -0.00155  -0.00164   2.07351
    A3        2.01130   0.00057   0.00000   0.00208   0.00199   2.01328
    A4        2.37133   0.00109   0.00000  -0.03684  -0.03684   2.33450
    A5        1.83549   0.00106   0.00000   0.00925   0.00925   1.84474
    A6        1.95892  -0.00060   0.00000  -0.00604  -0.00604   1.95288
    A7        1.90065  -0.00003   0.00000  -0.00033  -0.00035   1.90030
    A8        1.90771  -0.00032   0.00000  -0.00298  -0.00297   1.90474
    A9        1.91139   0.00006   0.00000   0.00354   0.00352   1.91491
   A10        1.94616  -0.00009   0.00000  -0.00257  -0.00259   1.94357
   A11        1.91740   0.00108   0.00000  -0.01039  -0.01039   1.90701
   A12        1.71240   0.00154   0.00000  -0.00011  -0.00011   1.71229
   A13        3.13851   0.00048   0.00000  -0.00275  -0.00275   3.13575
   A14        3.13718   0.00036   0.00000   0.00028   0.00028   3.13747
    D1       -2.12915  -0.00080   0.00000  -0.17122  -0.17120  -2.30035
    D2        1.04666   0.00016   0.00000  -0.14477  -0.14479   0.90187
    D3        1.48550   0.00099   0.00000   0.04799   0.04801   1.53351
    D4       -2.72527   0.00094   0.00000   0.04687   0.04686  -2.67840
    D5       -0.56174   0.00038   0.00000   0.03918   0.03918  -0.52256
    D6       -1.68922   0.00005   0.00000   0.02234   0.02235  -1.66687
    D7        0.38320   0.00000   0.00000   0.02122   0.02120   0.40440
    D8        2.54672  -0.00056   0.00000   0.01353   0.01352   2.56024
    D9        0.64634   0.00106   0.00000   0.14730   0.14730   0.79364
   D10       -0.15910   0.00042   0.00000  -0.01966  -0.01966  -0.17877
         Item               Value     Threshold  Converged?
 Maximum Force            0.001542     0.000450     NO 
 RMS     Force            0.000613     0.000300     NO 
 Maximum Displacement     0.202061     0.001800     NO 
 RMS     Displacement     0.082348     0.001200     NO 
 Predicted change in Energy=-2.166315D-04
 Optimization stopped.
    -- Number of steps exceeded,  NStep=  44
    -- Flag reset to prevent archiving.
                           ----------------------------
                           ! Non-Optimized Parameters !
                           ! (Angstroms and Degrees)  !
 --------------------------                            --------------------------
 ! Name  Definition              Value          Derivative Info.                !
 --------------------------------------------------------------------------------
 ! R1    R(1,2)                  1.2085         -DE/DX =    0.0008              !
 ! R2    R(1,3)                  1.4969         -DE/DX =    0.0002              !
 ! R3    R(1,7)                  1.7928         -DE/DX =    0.0001              !
 ! R4    R(2,11)                 2.2387         -DE/DX =    0.0                 !
 ! R5    R(3,4)                  1.0964         -DE/DX =   -0.0005              !
 ! R6    R(3,5)                  1.09           -DE/DX =    0.0                 !
 ! R7    R(3,6)                  1.093          -DE/DX =    0.0002              !
 ! R8    R(8,9)                  1.1714         -DE/DX =    0.0003              !
 ! R9    R(8,10)                 1.1988         -DE/DX =   -0.0003              !
 ! R10   R(10,11)                2.1849         -DE/DX =    0.0002              !
 ! A1    A(2,1,3)              125.7608         -DE/DX =   -0.0003              !
 ! A2    A(2,1,7)              118.8037         -DE/DX =   -0.0003              !
 ! A3    A(3,1,7)              115.3526         -DE/DX =    0.0006              !
 ! A4    A(1,2,11)             133.757          -DE/DX =    0.0011              !
 ! A5    A(1,3,4)              105.6957         -DE/DX =    0.0011              !
 ! A6    A(1,3,5)              111.8918         -DE/DX =   -0.0006              !
 ! A7    A(1,3,6)              108.8791         -DE/DX =    0.0                 !
 ! A8    A(4,3,5)              109.1336         -DE/DX =   -0.0003              !
 ! A9    A(4,3,6)              109.7165         -DE/DX =    0.0001              !
 ! A10   A(5,3,6)              111.3585         -DE/DX =   -0.0001              !
 ! A11   A(8,10,11)            109.2634         -DE/DX =    0.0011              !
 ! A12   A(2,11,10)             98.107          -DE/DX =    0.0015              !
 ! A13   L(9,8,10,2,-1)        179.6654         -DE/DX =    0.0005              !
 ! A14   L(9,8,10,2,-2)        179.7636         -DE/DX =    0.0004              !
 ! D1    D(3,1,2,11)          -131.8004         -DE/DX =   -0.0008              !
 ! D2    D(7,1,2,11)            51.6735         -DE/DX =    0.0002              !
 ! D3    D(2,1,3,4)             87.8636         -DE/DX =    0.001               !
 ! D4    D(2,1,3,5)           -153.4612         -DE/DX =    0.0009              !
 ! D5    D(2,1,3,6)            -29.9406         -DE/DX =    0.0004              !
 ! D6    D(7,1,3,4)            -95.5047         -DE/DX =    0.0                 !
 ! D7    D(7,1,3,5)             23.1705         -DE/DX =    0.0                 !
 ! D8    D(7,1,3,6)            146.6911         -DE/DX =   -0.0006              !
 ! D9    D(1,2,11,10)           45.4723         -DE/DX =    0.0011              !
 ! D10   D(8,10,11,2)          -10.2426         -DE/DX =    0.0004              !
 --------------------------------------------------------------------------------
 Largest change from initial coordinates is atom    4       0.273 Angstoms.
 GradGradGradGradGradGradGradGradGradGradGradGradGradGradGradGradGradGrad

 Leave Link  103 at Tue Oct 27 19:07:59 2020, MaxMem=  4294967296 cpu:               0.9 elap:               0.1
 (Enter /n/sw/g16_nehalem/g16/l202.exe)
                          Input orientation:                          
 ---------------------------------------------------------------------
 Center     Atomic      Atomic             Coordinates (Angstroms)
 Number     Number       Type             X           Y           Z
 ---------------------------------------------------------------------
      1          6           0       -1.067623   -0.305065    0.628445
      2          8           0       -0.094748   -0.819787    1.125762
      3          6           0       -1.864384    0.816345    1.219071
      4          1           0       -1.341950    1.731506    0.913757
      5          1           0       -2.885398    0.840993    0.839960
      6          1           0       -1.843416    0.730099    2.308538
      7         17           0       -1.678738   -0.936949   -0.930531
      8          7           0        1.307278    1.335698   -0.627551
      9          7           0        0.284956    1.893907   -0.746746
     10          7           0        2.351860    0.758444   -0.507694
     11         11           0        2.036782   -1.137557    0.526227
 ---------------------------------------------------------------------
                    Distance matrix (angstroms):
                    1          2          3          4          5
     1  C    0.000000
     2  O    1.207787   0.000000
     3  C    1.497073   2.411897   0.000000
     4  H    2.074676   2.847729   1.097122   0.000000
     5  H    2.159281   3.260000   1.089405   1.783449   0.000000
     6  H    2.120409   2.618959   1.093077   1.788771   1.804091
     7  Cl   1.789733   2.598287   2.780161   3.261208   2.784195
     8  N    3.147980   3.112218   3.706640   3.090421   4.469547
     9  N    2.925080   3.318825   3.105678   2.330336   3.698297
    10  N    3.756957   3.338395   4.556510   4.075734   5.408499
    11  Na   3.215715   2.236926   4.417789   4.449442   5.314221
                    6          7          8          9         10
     6  H    0.000000
     7  Cl   3.646606   0.000000
     8  N    4.349051   3.764706   0.000000
     9  N    3.901177   3.450162   1.170874   0.000000
    10  N    5.052951   4.393049   1.199475   2.370341   0.000000
    11  Na   4.660548   3.995933   2.824955   3.725470   2.182449
                   11
    11  Na   0.000000
 Stoichiometry    C2H3ClN3NaO
 Framework group  C1[X(C2H3ClN3NaO)]
 Deg. of freedom    27
 Full point group                 C1      NOp   1
 RotChk:  IX=0 Diff= 1.31D-15
 Largest Abelian subgroup         C1      NOp   1
 Largest concise Abelian subgroup C1      NOp   1
                         Standard orientation:                         
 ---------------------------------------------------------------------
 Center     Atomic      Atomic             Coordinates (Angstroms)
 Number     Number       Type             X           Y           Z
 ---------------------------------------------------------------------
      1          6           0       -1.083586   -0.267355    0.523602
      2          8           0       -0.228131   -1.050361    0.861016
      3          6           0       -1.706140    0.779574    1.394000
      4          1           0       -1.028974    1.640833    1.336079
      5          1           0       -2.694232    1.074049    1.042203
      6          1           0       -1.740418    0.410543    2.422328
      7         17           0       -1.731773   -0.359214   -1.142099
      8          7           0        1.574532    1.218322   -0.274494
      9          7           0        0.663373    1.952624   -0.235295
     10          7           0        2.504468    0.461983   -0.318223
     11         11           0        1.842778   -1.556339    0.183401
 ---------------------------------------------------------------------
 Rotational constants (GHZ):           1.9197984           1.0771807           0.9350918
 Leave Link  202 at Tue Oct 27 19:07:59 2020, MaxMem=  4294967296 cpu:               0.2 elap:               0.0
 (Enter /n/sw/g16_nehalem/g16/l601.exe)
 Copying SCF densities to generalized density rwf, IOpCl= 0 IROHF=0.

 **********************************************************************

            Population analysis using the SCF density.

 **********************************************************************

 Orbital symmetries:
       Occupied  (A) (A) (A) (A) (A) (A) (A) (A) (A) (A) (A) (A)
                 (A) (A) (A) (A) (A) (A) (A) (A) (A) (A) (A) (A)
                 (A) (A) (A) (A) (A) (A) (A) (A) (A) (A) (A) (A)
       Virtual   (A) (A) (A) (A) (A) (A) (A) (A) (A) (A) (A) (A)
                 (A) (A) (A) (A) (A) (A) (A) (A) (A) (A) (A) (A)
                 (A) (A) (A) (A) (A) (A) (A) (A) (A) (A) (A) (A)
                 (A) (A) (A) (A) (A) (A) (A) (A) (A) (A) (A) (A)
                 (A) (A) (A) (A) (A) (A) (A) (A) (A) (A) (A) (A)
                 (A) (A) (A) (A) (A) (A) (A) (A) (A) (A) (A) (A)
                 (A) (A) (A) (A) (A) (A) (A) (A) (A) (A) (A) (A)
                 (A) (A) (A) (A) (A) (A) (A) (A) (A) (A) (A) (A)
                 (A) (A)
 The electronic state is 1-A.
 Alpha  occ. eigenvalues -- -101.56068 -38.49803 -19.20612 -14.42791 -14.29095
 Alpha  occ. eigenvalues --  -14.28435 -10.36625 -10.21345  -9.47838  -7.24159
 Alpha  occ. eigenvalues --   -7.23325  -7.23207  -2.23940  -1.17262  -1.17224
 Alpha  occ. eigenvalues --   -1.16985  -1.11050  -1.04075  -0.87093  -0.86509
 Alpha  occ. eigenvalues --   -0.76704  -0.58140  -0.51063  -0.49196  -0.48690
 Alpha  occ. eigenvalues --   -0.42703  -0.42111  -0.41842  -0.41164  -0.39817
 Alpha  occ. eigenvalues --   -0.34834  -0.33521  -0.33382  -0.31802  -0.18362
 Alpha  occ. eigenvalues --   -0.17742
 Alpha virt. eigenvalues --   -0.05891  -0.05233   0.00129   0.01290   0.02015
 Alpha virt. eigenvalues --    0.03859   0.07003   0.09379   0.10088   0.12729
 Alpha virt. eigenvalues --    0.13676   0.14375   0.16733   0.18951   0.20596
 Alpha virt. eigenvalues --    0.22126   0.28207   0.32629   0.32866   0.35167
 Alpha virt. eigenvalues --    0.36995   0.40358   0.41856   0.43638   0.44784
 Alpha virt. eigenvalues --    0.48324   0.50208   0.52611   0.53701   0.55698
 Alpha virt. eigenvalues --    0.57340   0.60123   0.65681   0.66692   0.68916
 Alpha virt. eigenvalues --    0.71184   0.73181   0.77202   0.79143   0.81992
 Alpha virt. eigenvalues --    0.84090   0.85594   0.85834   0.87433   0.89557
 Alpha virt. eigenvalues --    0.91014   0.92689   0.96489   0.98941   1.00384
 Alpha virt. eigenvalues --    1.04770   1.05912   1.06884   1.09820   1.14694
 Alpha virt. eigenvalues --    1.23155   1.29207   1.33901   1.38784   1.42624
 Alpha virt. eigenvalues --    1.49073   1.49557   1.50411   1.51700   1.51808
 Alpha virt. eigenvalues --    1.55733   1.64114   1.76157   1.77864   1.79409
 Alpha virt. eigenvalues --    1.82494   1.83884   1.88394   2.05970   2.09171
 Alpha virt. eigenvalues --    2.09762   2.11251   2.16667   2.17660   2.18549
 Alpha virt. eigenvalues --    2.23679   2.35233   2.47322   2.50002   2.56537
 Alpha virt. eigenvalues --    2.74330   2.80162   2.97582   2.98577   3.01370
 Alpha virt. eigenvalues --    3.20132   3.67773   3.77557   4.03795   4.08280
 Alpha virt. eigenvalues --    4.26542   4.27211   4.40088
          Condensed to atoms (all electrons):
               1          2          3          4          5          6
     1  C    4.656801   0.465173   0.347494  -0.022234  -0.019643  -0.026907
     2  O    0.465173   7.992658  -0.057068  -0.001289   0.002403  -0.001362
     3  C    0.347494  -0.057068   5.287360   0.341929   0.354382   0.352656
     4  H   -0.022234  -0.001289   0.341929   0.415060  -0.015567  -0.015826
     5  H   -0.019643   0.002403   0.354382  -0.015567   0.507861  -0.024435
     6  H   -0.026907  -0.001362   0.352656  -0.015826  -0.024435   0.522479
     7  Cl   0.262728  -0.076188  -0.094663   0.001519   0.003743   0.004031
     8  N    0.000885  -0.001559  -0.000401  -0.000912   0.000037  -0.000001
     9  N    0.021544  -0.003872  -0.019982   0.024507   0.000175   0.000608
    10  N   -0.004208   0.000916   0.000132  -0.000056  -0.000002  -0.000015
    11  Na  -0.019480   0.094551   0.002747   0.001154  -0.000370   0.001041
               7          8          9         10         11
     1  C    0.262728   0.000885   0.021544  -0.004208  -0.019480
     2  O   -0.076188  -0.001559  -0.003872   0.000916   0.094551
     3  C   -0.094663  -0.000401  -0.019982   0.000132   0.002747
     4  H    0.001519  -0.000912   0.024507  -0.000056   0.001154
     5  H    0.003743   0.000037   0.000175  -0.000002  -0.000370
     6  H    0.004031  -0.000001   0.000608  -0.000015   0.001041
     7  Cl  16.908836   0.000174  -0.002215   0.000282   0.004623
     8  N    0.000174   5.744603   0.532756   0.371962  -0.035653
     9  N   -0.002215   0.532756   7.051291  -0.126111   0.002188
    10  N    0.000282   0.371962  -0.126111   7.170705   0.181786
    11  Na   0.004623  -0.035653   0.002188   0.181786  10.126131
 Mulliken charges:
               1
     1  C    0.337847
     2  O   -0.414363
     3  C   -0.514587
     4  H    0.271714
     5  H    0.191415
     6  H    0.187732
     7  Cl  -0.012870
     8  N    0.388109
     9  N   -0.480888
    10  N   -0.595391
    11  Na   0.641282
 Sum of Mulliken charges =   0.00000
 Mulliken charges with hydrogens summed into heavy atoms:
               1
     1  C    0.337847
     2  O   -0.414363
     3  C    0.136274
     7  Cl  -0.012870
     8  N    0.388109
     9  N   -0.480888
    10  N   -0.595391
    11  Na   0.641282
 Electronic spatial extent (au):  <R**2>=           1275.5329
 Charge=              0.0000 electrons
 Dipole moment (field-independent basis, Debye):
    X=             -1.2685    Y=             -6.8570    Z=              2.7561  Tot=              7.4982
 Quadrupole moment (field-independent basis, Debye-Ang):
   XX=            -52.8903   YY=            -48.9186   ZZ=            -50.7592
   XY=            -15.0292   XZ=              0.0600   YZ=              1.7809
 Traceless Quadrupole moment (field-independent basis, Debye-Ang):
   XX=             -2.0343   YY=              1.9375   ZZ=              0.0968
   XY=            -15.0292   XZ=              0.0600   YZ=              1.7809
 Octapole moment (field-independent basis, Debye-Ang**2):
  XXX=            -11.5672  YYY=            -55.9595  ZZZ=              3.6021  XYY=             23.5259
  XXY=            -31.3968  XXZ=             13.4291  XZZ=             -0.0267  YZZ=             -6.7391
  YYZ=              4.5426  XYZ=             -3.3576
 Hexadecapole moment (field-independent basis, Debye-Ang**3):
 XXXX=           -937.4521 YYYY=           -381.4140 ZZZZ=           -269.2646 XXXY=            -99.8149
 XXXZ=             24.1016 YYYX=            -80.8026 YYYZ=             -1.6911 ZZZX=             11.4872
 ZZZY=             -2.3645 XXYY=           -161.8895 XXZZ=           -185.8263 YYZZ=           -110.6369
 XXYZ=             -4.4445 YYXZ=              5.5325 ZZXY=            -14.1509
 N-N= 4.392211335730D+02 E-N=-3.104393095438D+03  KE= 9.349736851402D+02
 No NMR shielding tensors so no spin-rotation constants.
 Leave Link  601 at Tue Oct 27 19:07:59 2020, MaxMem=  4294967296 cpu:               1.9 elap:               0.1
 (Enter /n/sw/g16_nehalem/g16/l9999.exe)


 IT MATTERS NOT HOW DEEP YOU PLOW,
 BUT HOW LONG YOU STAY IN THE FURROW.
 Error termination request processed by link 9999.
 Error termination via Lnk1e in /n/sw/g16_nehalem/g16/l9999.exe at Tue Oct 27 19:07:59 2020.
 Job cpu time:       0 days  1 hours  1 minutes 43.1 seconds.
 Elapsed time:       0 days  0 hours  4 minutes 25.7 seconds.
 File lengths (MBytes):  RWF=     32 Int=      0 D2E=      0 Chk=      3 Scr=      1
