 Entering Gaussian System, Link 0=g16
 Input=AcCl-NaN3.gjf
 Output=AcCl-NaN3_scan-f.out
 Initial command:
 /n/sw/g16_nehalem/g16/l1.exe "/scratch/Gau-216765.inp" -scrdir="/scratch/"
 Entering Link 1 = /n/sw/g16_nehalem/g16/l1.exe PID=    216769.
  
 Copyright (c) 1988,1990,1992,1993,1995,1998,2003,2009,2016,
            Gaussian, Inc.  All Rights Reserved.
  
 This is part of the Gaussian(R) 16 program.  It is based on
 the Gaussian(R) 09 system (copyright 2009, Gaussian, Inc.),
 the Gaussian(R) 03 system (copyright 2003, Gaussian, Inc.),
 the Gaussian(R) 98 system (copyright 1998, Gaussian, Inc.),
 the Gaussian(R) 94 system (copyright 1995, Gaussian, Inc.),
 the Gaussian 92(TM) system (copyright 1992, Gaussian, Inc.),
 the Gaussian 90(TM) system (copyright 1990, Gaussian, Inc.),
 the Gaussian 88(TM) system (copyright 1988, Gaussian, Inc.),
 the Gaussian 86(TM) system (copyright 1986, Carnegie Mellon
 University), and the Gaussian 82(TM) system (copyright 1983,
 Carnegie Mellon University). Gaussian is a federally registered
 trademark of Gaussian, Inc.
  
 This software contains proprietary and confidential information,
 including trade secrets, belonging to Gaussian, Inc.
  
 This software is provided under written license and may be
 used, copied, transmitted, or stored only in accord with that
 written license.
  
 The following legend is applicable only to US Government
 contracts under FAR:
  
                    RESTRICTED RIGHTS LEGEND
  
 Use, reproduction and disclosure by the US Government is
 subject to restrictions as set forth in subparagraphs (a)
 and (c) of the Commercial Computer Software - Restricted
 Rights clause in FAR 52.227-19.
  
 Gaussian, Inc.
 340 Quinnipiac St., Bldg. 40, Wallingford CT 06492
  
  
 ---------------------------------------------------------------
 Warning -- This program may not be used in any manner that
 competes with the business of Gaussian, Inc. or will provide
 assistance to any competitor of Gaussian, Inc.  The licensee
 of this program is prohibited from giving any competitor of
 Gaussian, Inc. access to this program.  By using this program,
 the user acknowledges that Gaussian, Inc. is engaged in the
 business of creating and licensing software in the field of
 computational chemistry and represents and warrants to the
 licensee that it is not a competitor of Gaussian, Inc. and that
 it will not use this program in any manner prohibited above.
 ---------------------------------------------------------------
  

 Cite this work as:
 Gaussian 16, Revision A.03,
 M. J. Frisch, G. W. Trucks, H. B. Schlegel, G. E. Scuseria, 
 M. A. Robb, J. R. Cheeseman, G. Scalmani, V. Barone, 
 G. A. Petersson, H. Nakatsuji, X. Li, M. Caricato, A. V. Marenich, 
 J. Bloino, B. G. Janesko, R. Gomperts, B. Mennucci, H. P. Hratchian, 
 J. V. Ortiz, A. F. Izmaylov, J. L. Sonnenberg, D. Williams-Young, 
 F. Ding, F. Lipparini, F. Egidi, J. Goings, B. Peng, A. Petrone, 
 T. Henderson, D. Ranasinghe, V. G. Zakrzewski, J. Gao, N. Rega, 
 G. Zheng, W. Liang, M. Hada, M. Ehara, K. Toyota, R. Fukuda, 
 J. Hasegawa, M. Ishida, T. Nakajima, Y. Honda, O. Kitao, H. Nakai, 
 T. Vreven, K. Throssell, J. A. Montgomery, Jr., J. E. Peralta, 
 F. Ogliaro, M. J. Bearpark, J. J. Heyd, E. N. Brothers, K. N. Kudin, 
 V. N. Staroverov, T. A. Keith, R. Kobayashi, J. Normand, 
 K. Raghavachari, A. P. Rendell, J. C. Burant, S. S. Iyengar, 
 J. Tomasi, M. Cossi, J. M. Millam, M. Klene, C. Adamo, R. Cammi, 
 J. W. Ochterski, R. L. Martin, K. Morokuma, O. Farkas, 
 J. B. Foresman, and D. J. Fox, Gaussian, Inc., Wallingford CT, 2016.
 
 ******************************************
 Gaussian 16:  ES64L-G16RevA.03 25-Dec-2016
                27-Oct-2020 
 ******************************************
 %nprocshared=16
 Will use up to   16 processors via shared memory.
 %mem=32GB
 ------------------------------------------------------------
 #p opt=modredundant b3lyp/6-31g(d) empiricaldispersion=gd3bj
 ------------------------------------------------------------
 1/18=120,19=15,26=3,38=1/1,3;
 2/9=110,12=2,17=6,18=5,40=1/2;
 3/5=1,6=6,7=1,11=2,25=1,30=1,71=1,74=-5,124=41/1,2,3;
 4//1;
 5/5=2,38=5/2;
 6/7=2,8=2,9=2,10=2,28=1/1;
 7//1,2,3,16;
 1/18=20,19=15,26=3/3(2);
 2/9=110/2;
 99//99;
 2/9=110/2;
 3/5=1,6=6,7=1,11=2,25=1,30=1,71=1,74=-5,124=41/1,2,3;
 4/5=5,16=3,69=1/1;
 5/5=2,38=5/2;
 7//1,2,3,16;
 1/18=20,19=15,26=3/3(-5);
 2/9=110/2;
 6/7=2,8=2,9=2,10=2,19=2,28=1/1;
 99/9=1/99;
 Leave Link    1 at Tue Oct 27 18:22:13 2020, MaxMem=  4294967296 cpu:               1.4 elap:               0.1
 (Enter /n/sw/g16_nehalem/g16/l101.exe)
 -----
 title
 -----
 Symbolic Z-matrix:
 Charge =  0 Multiplicity = 1
 C                    -0.19426  -0.292    -0.21291 
 O                    -0.25532  -0.66526  -1.45426 
 C                    -0.33095  -1.45422   0.81632 
 H                    -0.18039  -1.13044   1.85373 
 H                    -1.34067  -1.87301   0.71427 
 H                     0.39707  -2.23395   0.57058 
 Cl                   -1.15225   0.92328   0.19373 
 N                     2.51642   0.54021   0.13564 
 N                     1.45201   0.29768   0.10942 
 N                     3.88104   0.85114   0.16926 
 Na                    1.47825  -0.98569  -2.51992 
 
 Add virtual bond connecting atoms N9         and C1         Dist= 3.36D+00.
 The following ModRedundant input section has been read:
 B       1       9 S  50 -0.010                                                
 
 ITRead=  0  0  0  0  0  0  0  0  0  0  0
 MicOpt= -1 -1 -1 -1 -1 -1 -1 -1 -1 -1 -1
 NAtoms=     11 NQM=       11 NQMF=       0 NMMI=      0 NMMIF=      0
                NMic=       0 NMicF=      0.
                    Isotopes and Nuclear Properties:
 (Nuclear quadrupole moments (NQMom) in fm**2, nuclear magnetic moments (NMagM)
  in nuclear magnetons)

  Atom         1           2           3           4           5           6           7           8           9          10
 IAtWgt=          12          16          12           1           1           1          35          14          14          14
 AtmWgt=  12.0000000  15.9949146  12.0000000   1.0078250   1.0078250   1.0078250  34.9688527  14.0030740  14.0030740  14.0030740
 NucSpn=           0           0           0           1           1           1           3           2           2           2
 AtZEff=   0.0000000   0.0000000   0.0000000   0.0000000   0.0000000   0.0000000   0.0000000   0.0000000   0.0000000   0.0000000
 NQMom=    0.0000000   0.0000000   0.0000000   0.0000000   0.0000000   0.0000000  -8.1650000   2.0440000   2.0440000   2.0440000
 NMagM=    0.0000000   0.0000000   0.0000000   2.7928460   2.7928460   2.7928460   0.8218740   0.4037610   0.4037610   0.4037610
 AtZNuc=   6.0000000   8.0000000   6.0000000   1.0000000   1.0000000   1.0000000  17.0000000   7.0000000   7.0000000   7.0000000

  Atom        11
 IAtWgt=          23
 AtmWgt=  22.9897697
 NucSpn=           3
 AtZEff=   0.0000000
 NQMom=   10.4000000
 NMagM=    2.2175200
 AtZNuc=  11.0000000
 Leave Link  101 at Tue Oct 27 18:22:15 2020, MaxMem=  4294967296 cpu:              11.1 elap:               0.7
 (Enter /n/sw/g16_nehalem/g16/l103.exe)

 GradGradGradGradGradGradGradGradGradGradGradGradGradGradGradGradGradGrad
 Berny optimization.
 Initialization pass.
                           ----------------------------
                           !    Initial Parameters    !
                           ! (Angstroms and Degrees)  !
 --------------------------                            --------------------------
 ! Name  Definition              Value          Derivative Info.                !
 --------------------------------------------------------------------------------
 ! R1    R(1,2)                  1.2977         estimate D2E/DX2                !
 ! R2    R(1,3)                  1.5584         estimate D2E/DX2                !
 ! R3    R(1,7)                  1.6            estimate D2E/DX2                !
 ! R4    R(1,9)                  1.7782         Scan                            !
 ! R5    R(2,11)                 2.06           estimate D2E/DX2                !
 ! R6    R(3,4)                  1.0971         estimate D2E/DX2                !
 ! R7    R(3,5)                  1.0979         estimate D2E/DX2                !
 ! R8    R(3,6)                  1.0947         estimate D2E/DX2                !
 ! R9    R(8,9)                  1.092          estimate D2E/DX2                !
 ! R10   R(8,10)                 1.4            estimate D2E/DX2                !
 ! A1    A(2,1,3)              114.4006         estimate D2E/DX2                !
 ! A2    A(2,1,7)              115.6846         estimate D2E/DX2                !
 ! A3    A(2,1,9)              108.2009         estimate D2E/DX2                !
 ! A4    A(3,1,7)              110.248          estimate D2E/DX2                !
 ! A5    A(3,1,9)              102.0519         estimate D2E/DX2                !
 ! A6    A(7,1,9)              104.855          estimate D2E/DX2                !
 ! A7    A(1,2,11)             120.0            estimate D2E/DX2                !
 ! A8    A(1,3,4)              113.1005         estimate D2E/DX2                !
 ! A9    A(1,3,5)              107.683          estimate D2E/DX2                !
 ! A10   A(1,3,6)              108.9421         estimate D2E/DX2                !
 ! A11   A(4,3,5)              109.0662         estimate D2E/DX2                !
 ! A12   A(4,3,6)              109.3417         estimate D2E/DX2                !
 ! A13   A(5,3,6)              108.6067         estimate D2E/DX2                !
 ! A14   L(9,8,10,11,-1)       180.0            estimate D2E/DX2                !
 ! A15   L(1,9,8,11,-1)        168.869          estimate D2E/DX2                !
 ! A16   L(9,8,10,11,-2)       180.0            estimate D2E/DX2                !
 ! A17   L(1,9,8,11,-2)        182.2766         estimate D2E/DX2                !
 ! D1    D(3,1,2,11)           -96.7641         estimate D2E/DX2                !
 ! D2    D(7,1,2,11)           133.4543         estimate D2E/DX2                !
 ! D3    D(9,1,2,11)            16.222          estimate D2E/DX2                !
 ! D4    D(2,1,3,4)            174.4714         estimate D2E/DX2                !
 ! D5    D(2,1,3,5)            -64.9488         estimate D2E/DX2                !
 ! D6    D(2,1,3,6)             52.6633         estimate D2E/DX2                !
 ! D7    D(7,1,3,4)            -53.1046         estimate D2E/DX2                !
 ! D8    D(7,1,3,5)             67.4752         estimate D2E/DX2                !
 ! D9    D(7,1,3,6)           -174.9127         estimate D2E/DX2                !
 ! D10   D(9,1,3,4)             57.8837         estimate D2E/DX2                !
 ! D11   D(9,1,3,5)            178.4634         estimate D2E/DX2                !
 ! D12   D(9,1,3,6)            -63.9245         estimate D2E/DX2                !
 --------------------------------------------------------------------------------
 Trust Radius=3.00D-01 FncErr=1.00D-07 GrdErr=1.00D-06 EigMax=2.50D+02 EigMin=1.00D-04
 Number of optimizations in scan=  51
 Number of steps in this run=     49 maximum allowed number of steps=    100.
 GradGradGradGradGradGradGradGradGradGradGradGradGradGradGradGradGradGrad

 Leave Link  103 at Tue Oct 27 18:22:16 2020, MaxMem=  4294967296 cpu:               0.1 elap:               0.0
 (Enter /n/sw/g16_nehalem/g16/l202.exe)
                          Input orientation:                          
 ---------------------------------------------------------------------
 Center     Atomic      Atomic             Coordinates (Angstroms)
 Number     Number       Type             X           Y           Z
 ---------------------------------------------------------------------
      1          6           0       -0.194263   -0.291999   -0.212908
      2          8           0       -0.255321   -0.665256   -1.454255
      3          6           0       -0.330945   -1.454221    0.816316
      4          1           0       -0.180394   -1.130438    1.853734
      5          1           0       -1.340665   -1.873010    0.714272
      6          1           0        0.397068   -2.233949    0.570583
      7         17           0       -1.152246    0.923284    0.193734
      8          7           0        2.516416    0.540210    0.135642
      9          7           0        1.452011    0.297684    0.109423
     10          7           0        3.881038    0.851140    0.169257
     11         11           0        1.478253   -0.985688   -2.519922
 ---------------------------------------------------------------------
                    Distance matrix (angstroms):
                    1          2          3          4          5
     1  C    0.000000
     2  O    1.297687   0.000000
     3  C    1.558443   2.404928   0.000000
     4  H    2.230287   3.341377   1.097150   0.000000
     5  H    2.161827   2.709087   1.097876   1.787740   0.000000
     6  H    2.175937   2.643176   1.094698   1.788205   1.780629
     7  Cl   1.600001   2.458414   2.591269   2.813871   2.850565
     8  N    2.856893   3.415179   3.542391   3.607726   4.586449
     9  N    1.778157   2.507454   2.597653   2.783326   3.588425
    10  N    4.249811   4.695180   4.845015   4.822794   5.914746
    11  Na   2.932717   2.060000   3.824030   4.679843   4.381055
                    6          7          8          9         10
     6  H    0.000000
     7  Cl   3.537020   0.000000
     8  N    3.518063   3.689065   0.000000
     9  N    2.781140   2.679671   1.092000   0.000000
    10  N    4.670855   5.033860   1.400000   2.492000   0.000000
    11  Na   3.504046   4.234103   3.233909   2.925951   4.047097
                   11
    11  Na   0.000000
 Stoichiometry    C2H3ClN3NaO
 Framework group  C1[X(C2H3ClN3NaO)]
 Deg. of freedom    27
 Full point group                 C1      NOp   1
 Largest Abelian subgroup         C1      NOp   1
 Largest concise Abelian subgroup C1      NOp   1
                         Standard orientation:                         
 ---------------------------------------------------------------------
 Center     Atomic      Atomic             Coordinates (Angstroms)
 Number     Number       Type             X           Y           Z
 ---------------------------------------------------------------------
      1          6           0        0.847173    0.100374    0.165802
      2          8           0        0.707533    1.338420   -0.197150
      3          6           0        1.213158   -0.092694    1.668308
      4          1           0        1.231430   -1.145946    1.975005
      5          1           0        2.207360    0.344703    1.828238
      6          1           0        0.489141    0.451463    2.283171
      7         17           0        1.805937   -0.788698   -0.756329
      8          7           0       -1.795750   -0.974570    0.019883
      9          7           0       -0.742436   -0.690250    0.066315
     10          7           0       -3.146153   -1.339082   -0.039645
     11         11           0       -1.169158    2.184683   -0.271105
 ---------------------------------------------------------------------
 Rotational constants (GHZ):           1.8371380           1.1325175           0.8636771
 Leave Link  202 at Tue Oct 27 18:22:16 2020, MaxMem=  4294967296 cpu:               0.0 elap:               0.0
 (Enter /n/sw/g16_nehalem/g16/l301.exe)
 Standard basis: 6-31G(d) (6D, 7F)
 Ernie: Thresh=  0.10000D-02 Tol=  0.10000D-05 Strict=F.
 There are   134 symmetry adapted cartesian basis functions of A   symmetry.
 There are   134 symmetry adapted basis functions of A   symmetry.
   134 basis functions,   284 primitive gaussians,   134 cartesian basis functions
    36 alpha electrons       36 beta electrons
       nuclear repulsion energy       447.5535762955 Hartrees.
 IExCor=  402 DFT=T Ex+Corr=B3LYP ExCW=0 ScaHFX=  0.200000
 ScaDFX=  0.800000  0.720000  1.000000  0.810000 ScalE2=  1.000000  1.000000
 IRadAn=      5 IRanWt=     -1 IRanGd=            0 ICorTp=0 IEmpDi=141
 NAtoms=   11 NActive=   11 NUniq=   11 SFac= 1.00D+00 NAtFMM=   60 NAOKFM=F Big=F
 Integral buffers will be    131072 words long.
 Raffenetti 2 integral format.
 Two-electron integral symmetry is turned on.
 R6Disp:  Grimme-D3(BJ) Dispersion energy=       -0.0198329971 Hartrees.
 Nuclear repulsion after empirical dispersion term =      447.5337432985 Hartrees.
 Leave Link  301 at Tue Oct 27 18:22:17 2020, MaxMem=  4294967296 cpu:               1.4 elap:               0.1
 (Enter /n/sw/g16_nehalem/g16/l302.exe)
 NPDir=0 NMtPBC=     1 NCelOv=     1 NCel=       1 NClECP=     1 NCelD=      1
         NCelK=      1 NCelE2=     1 NClLst=     1 CellRange=     0.0.
 One-electron integrals computed using PRISM.
 One-electron integral symmetry used in STVInt
 NBasis=   134 RedAO= T EigKep=  5.57D-04  NBF=   134
 NBsUse=   134 1.00D-06 EigRej= -1.00D+00 NBFU=   134
 Precomputing XC quadrature grid using
 IXCGrd= 4 IRadAn=           5 IRanWt=          -1 IRanGd=           0 AccXCQ= 0.00D+00.
 Generated NRdTot=       0 NPtTot=           0 NUsed=           0 NTot=          32
 NSgBfM=   133   133   133   133   133 MxSgAt=    11 MxSgA2=    11.
 Leave Link  302 at Tue Oct 27 18:22:17 2020, MaxMem=  4294967296 cpu:               2.6 elap:               0.2
 (Enter /n/sw/g16_nehalem/g16/l303.exe)
 DipDrv:  MaxL=1.
 Leave Link  303 at Tue Oct 27 18:22:18 2020, MaxMem=  4294967296 cpu:               0.3 elap:               0.0
 (Enter /n/sw/g16_nehalem/g16/l401.exe)
 ExpMin= 2.60D-02 ExpMax= 2.52D+04 ExpMxC= 3.78D+03 IAcc=3 IRadAn=         5 AccDes= 0.00D+00
 Harris functional with IExCor=  402 and IRadAn=       5 diagonalized for initial guess.
 HarFok:  IExCor=  402 AccDes= 0.00D+00 IRadAn=         5 IDoV= 1 UseB2=F ITyADJ=14
 ICtDFT=  3500011 ScaDFX=  1.000000  1.000000  1.000000  1.000000
 FoFCou: FMM=F IPFlag=           0 FMFlag=      100000 FMFlg1=           0
         NFxFlg=           0 DoJE=T BraDBF=F KetDBF=T FulRan=T
         wScrn=  0.000000 ICntrl=       500 IOpCl=  0 I1Cent=   200000004 NGrid=           0
         NMat0=    1 NMatS0=      1 NMatT0=    0 NMatD0=    1 NMtDS0=    0 NMtDT0=    0
 Petite list used in FoFCou.
 Harris En= -939.828196259287    
 JPrj=0 DoOrth=F DoCkMO=F.
 Leave Link  401 at Tue Oct 27 18:22:19 2020, MaxMem=  4294967296 cpu:               5.6 elap:               0.4
 (Enter /n/sw/g16_nehalem/g16/l502.exe)
 Keep R1 ints in memory in canonical form, NReq=56246956.
 FoFCou: FMM=F IPFlag=           0 FMFlag=           0 FMFlg1=           0
         NFxFlg=           0 DoJE=F BraDBF=F KetDBF=F FulRan=T
         wScrn=  0.000000 ICntrl=       600 IOpCl=  0 I1Cent=           0 NGrid=           0
         NMat0=    1 NMatS0=   9045 NMatT0=    0 NMatD0=    1 NMtDS0=    0 NMtDT0=    0
 Symmetry not used in FoFCou.
 Two-electron integral symmetry not used.
 Closed shell SCF:
 Using DIIS extrapolation, IDIIS=  1040.
 NGot=  4294967296 LenX=  4254017214 LenY=  4253998817
 Requested convergence on RMS density matrix=1.00D-08 within 128 cycles.
 Requested convergence on MAX density matrix=1.00D-06.
 Requested convergence on             energy=1.00D-06.
 No special actions if energy rises.

 Cycle   1  Pass 1  IDiag  1:
 E= -939.550275701653    
 DIIS: error= 3.57D-02 at cycle   1 NSaved=   1.
 NSaved= 1 IEnMin= 1 EnMin= -939.550275701653     IErMin= 1 ErrMin= 3.57D-02
 ErrMax= 3.57D-02  0.00D+00 EMaxC= 1.00D-01 BMatC= 3.42D-01 BMatP= 3.42D-01
 IDIUse=3 WtCom= 6.43D-01 WtEn= 3.57D-01
 Coeff-Com:  0.100D+01
 Coeff-En:   0.100D+01
 Coeff:      0.100D+01
 Gap=     0.007 Goal=   None    Shift=    0.000
 GapD=    0.007 DampG=0.250 DampE=0.500 DampFc=0.2500 IDamp=-1.
 Damping current iteration by 2.50D-01
 RMSDP=1.58D-02 MaxDP=3.51D-01              OVMax= 6.00D-01

 Cycle   2  Pass 1  IDiag  1:
 E= -939.590107077455     Delta-E=       -0.039831375802 Rises=F Damp=T
 DIIS: error= 1.97D-02 at cycle   2 NSaved=   2.
 NSaved= 2 IEnMin= 2 EnMin= -939.590107077455     IErMin= 2 ErrMin= 1.97D-02
 ErrMax= 1.97D-02  0.00D+00 EMaxC= 1.00D-01 BMatC= 6.10D-02 BMatP= 3.42D-01
 IDIUse=3 WtCom= 8.03D-01 WtEn= 1.97D-01
 Coeff-Com:  0.308D-01 0.969D+00
 Coeff-En:   0.410D+00 0.590D+00
 Coeff:      0.105D+00 0.895D+00
 Gap=     0.106 Goal=   None    Shift=    0.000
 RMSDP=4.52D-03 MaxDP=1.15D-01 DE=-3.98D-02 OVMax= 6.00D-01

 Cycle   3  Pass 1  IDiag  1:
 E= -939.648417289349     Delta-E=       -0.058310211894 Rises=F Damp=F
 DIIS: error= 3.21D-02 at cycle   3 NSaved=   3.
 NSaved= 3 IEnMin= 3 EnMin= -939.648417289349     IErMin= 2 ErrMin= 1.97D-02
 ErrMax= 3.21D-02  0.00D+00 EMaxC= 1.00D-01 BMatC= 2.11D-01 BMatP= 6.10D-02
 IDIUse=2 WtCom= 0.00D+00 WtEn= 1.00D+00
 EnCoef did     2 forward-backward iterations
 Coeff-En:   0.779D-01 0.359D+00 0.563D+00
 Coeff:      0.779D-01 0.359D+00 0.563D+00
 Gap=     0.041 Goal=   None    Shift=    0.000
 RMSDP=8.40D-03 MaxDP=2.15D-01 DE=-5.83D-02 OVMax= 4.80D-01

 Cycle   4  Pass 1  IDiag  1:
 E= -938.964723266922     Delta-E=        0.683694022427 Rises=F Damp=F
 DIIS: error= 7.60D-02 at cycle   4 NSaved=   4.
 NSaved= 4 IEnMin= 3 EnMin= -939.648417289349     IErMin= 2 ErrMin= 1.97D-02
 ErrMax= 7.60D-02  0.00D+00 EMaxC= 1.00D-01 BMatC= 9.13D-01 BMatP= 6.10D-02
 IDIUse=2 WtCom= 0.00D+00 WtEn= 1.00D+00
 EnCoef did     3 forward-backward iterations
 Coeff-En:   0.108D+00 0.000D+00 0.636D+00 0.256D+00
 Coeff:      0.108D+00 0.000D+00 0.636D+00 0.256D+00
 Gap=     0.086 Goal=   None    Shift=    0.000
 RMSDP=5.22D-03 MaxDP=1.39D-01 DE= 6.84D-01 OVMax= 3.08D-01

 Cycle   5  Pass 1  IDiag  1:
 E= -939.806319043278     Delta-E=       -0.841595776356 Rises=F Damp=F
 DIIS: error= 1.41D-02 at cycle   5 NSaved=   5.
 NSaved= 5 IEnMin= 5 EnMin= -939.806319043278     IErMin= 5 ErrMin= 1.41D-02
 ErrMax= 1.41D-02  0.00D+00 EMaxC= 1.00D-01 BMatC= 5.02D-02 BMatP= 6.10D-02
 IDIUse=3 WtCom= 8.59D-01 WtEn= 1.41D-01
 Coeff-Com:  0.852D-02 0.158D+00 0.351D+00 0.468D-01 0.436D+00
 Coeff-En:   0.000D+00 0.000D+00 0.243D+00 0.000D+00 0.757D+00
 Coeff:      0.732D-02 0.136D+00 0.335D+00 0.401D-01 0.482D+00
 Gap=     0.091 Goal=   None    Shift=    0.000
 RMSDP=1.49D-03 MaxDP=4.81D-02 DE=-8.42D-01 OVMax= 5.29D-02

 Cycle   6  Pass 1  IDiag  1:
 E= -939.844453598674     Delta-E=       -0.038134555396 Rises=F Damp=F
 DIIS: error= 3.95D-03 at cycle   6 NSaved=   6.
 NSaved= 6 IEnMin= 6 EnMin= -939.844453598674     IErMin= 6 ErrMin= 3.95D-03
 ErrMax= 3.95D-03  0.00D+00 EMaxC= 1.00D-01 BMatC= 5.71D-03 BMatP= 5.02D-02
 IDIUse=3 WtCom= 9.60D-01 WtEn= 3.95D-02
 Coeff-Com: -0.499D-01 0.855D-01 0.118D+00-0.432D-01 0.356D+00 0.534D+00
 Coeff-En:   0.000D+00 0.000D+00 0.000D+00 0.000D+00 0.209D-01 0.979D+00
 Coeff:     -0.479D-01 0.821D-01 0.113D+00-0.415D-01 0.343D+00 0.551D+00
 Gap=     0.095 Goal=   None    Shift=    0.000
 RMSDP=4.58D-04 MaxDP=1.17D-02 DE=-3.81D-02 OVMax= 1.45D-02

 Cycle   7  Pass 1  IDiag  1:
 E= -939.848739847362     Delta-E=       -0.004286248688 Rises=F Damp=F
 DIIS: error= 6.90D-04 at cycle   7 NSaved=   7.
 NSaved= 7 IEnMin= 7 EnMin= -939.848739847362     IErMin= 7 ErrMin= 6.90D-04
 ErrMax= 6.90D-04  0.00D+00 EMaxC= 1.00D-01 BMatC= 1.16D-04 BMatP= 5.71D-03
 IDIUse=3 WtCom= 9.93D-01 WtEn= 6.90D-03
 Coeff-Com: -0.232D-01 0.457D-01 0.362D-01-0.189D-01 0.930D-01 0.204D+00
 Coeff-Com:  0.664D+00
 Coeff-En:   0.000D+00 0.000D+00 0.000D+00 0.000D+00 0.000D+00 0.000D+00
 Coeff-En:   0.100D+01
 Coeff:     -0.230D-01 0.454D-01 0.359D-01-0.188D-01 0.923D-01 0.202D+00
 Coeff:      0.666D+00
 Gap=     0.095 Goal=   None    Shift=    0.000
 RMSDP=7.75D-05 MaxDP=1.87D-03 DE=-4.29D-03 OVMax= 2.24D-03

 Cycle   8  Pass 1  IDiag  1:
 E= -939.848825346253     Delta-E=       -0.000085498891 Rises=F Damp=F
 DIIS: error= 1.91D-04 at cycle   8 NSaved=   8.
 NSaved= 8 IEnMin= 8 EnMin= -939.848825346253     IErMin= 8 ErrMin= 1.91D-04
 ErrMax= 1.91D-04  0.00D+00 EMaxC= 1.00D-01 BMatC= 1.06D-05 BMatP= 1.16D-04
 IDIUse=3 WtCom= 9.98D-01 WtEn= 1.91D-03
 Coeff-Com: -0.248D-02 0.428D-02-0.495D-03-0.408D-03-0.151D-01-0.628D-02
 Coeff-Com:  0.296D+00 0.724D+00
 Coeff-En:   0.000D+00 0.000D+00 0.000D+00 0.000D+00 0.000D+00 0.000D+00
 Coeff-En:   0.658D-02 0.993D+00
 Coeff:     -0.248D-02 0.428D-02-0.494D-03-0.407D-03-0.150D-01-0.626D-02
 Coeff:      0.295D+00 0.725D+00
 Gap=     0.096 Goal=   None    Shift=    0.000
 RMSDP=2.81D-05 MaxDP=7.22D-04 DE=-8.55D-05 OVMax= 7.39D-04

 Cycle   9  Pass 1  IDiag  1:
 E= -939.848833994990     Delta-E=       -0.000008648737 Rises=F Damp=F
 DIIS: error= 1.05D-04 at cycle   9 NSaved=   9.
 NSaved= 9 IEnMin= 9 EnMin= -939.848833994990     IErMin= 9 ErrMin= 1.05D-04
 ErrMax= 1.05D-04  0.00D+00 EMaxC= 1.00D-01 BMatC= 1.50D-06 BMatP= 1.06D-05
 IDIUse=3 WtCom= 9.99D-01 WtEn= 1.05D-03
 Coeff-Com: -0.125D-02 0.116D-02-0.364D-03-0.295D-04-0.327D-02 0.211D-02
 Coeff-Com:  0.106D+00 0.276D+00 0.620D+00
 Coeff-En:   0.000D+00 0.000D+00 0.000D+00 0.000D+00 0.000D+00 0.000D+00
 Coeff-En:   0.000D+00 0.000D+00 0.100D+01
 Coeff:     -0.125D-02 0.116D-02-0.363D-03-0.295D-04-0.327D-02 0.210D-02
 Coeff:      0.106D+00 0.275D+00 0.620D+00
 Gap=     0.095 Goal=   None    Shift=    0.000
 RMSDP=9.49D-06 MaxDP=2.35D-04 DE=-8.65D-06 OVMax= 4.48D-04

 Cycle  10  Pass 1  IDiag  1:
 E= -939.848835346843     Delta-E=       -0.000001351853 Rises=F Damp=F
 DIIS: error= 2.88D-05 at cycle  10 NSaved=  10.
 NSaved=10 IEnMin=10 EnMin= -939.848835346843     IErMin=10 ErrMin= 2.88D-05
 ErrMax= 2.88D-05  0.00D+00 EMaxC= 1.00D-01 BMatC= 1.16D-07 BMatP= 1.50D-06
 IDIUse=1 WtCom= 1.00D+00 WtEn= 0.00D+00
 Coeff-Com: -0.442D-03 0.390D-03-0.507D-03 0.111D-03-0.905D-03 0.959D-03
 Coeff-Com:  0.190D-01 0.521D-01 0.243D+00 0.686D+00
 Coeff:     -0.442D-03 0.390D-03-0.507D-03 0.111D-03-0.905D-03 0.959D-03
 Coeff:      0.190D-01 0.521D-01 0.243D+00 0.686D+00
 Gap=     0.095 Goal=   None    Shift=    0.000
 RMSDP=2.76D-06 MaxDP=5.09D-05 DE=-1.35D-06 OVMax= 8.03D-05

 Cycle  11  Pass 1  IDiag  1:
 E= -939.848835441320     Delta-E=       -0.000000094477 Rises=F Damp=F
 DIIS: error= 1.15D-05 at cycle  11 NSaved=  11.
 NSaved=11 IEnMin=11 EnMin= -939.848835441320     IErMin=11 ErrMin= 1.15D-05
 ErrMax= 1.15D-05  0.00D+00 EMaxC= 1.00D-01 BMatC= 2.01D-08 BMatP= 1.16D-07
 IDIUse=1 WtCom= 1.00D+00 WtEn= 0.00D+00
 Coeff-Com: -0.205D-03 0.215D-03-0.262D-03 0.704D-04-0.164D-03 0.353D-03
 Coeff-Com:  0.349D-03 0.382D-02 0.712D-01 0.338D+00 0.587D+00
 Coeff:     -0.205D-03 0.215D-03-0.262D-03 0.704D-04-0.164D-03 0.353D-03
 Coeff:      0.349D-03 0.382D-02 0.712D-01 0.338D+00 0.587D+00
 Gap=     0.096 Goal=   None    Shift=    0.000
 RMSDP=8.83D-07 MaxDP=1.74D-05 DE=-9.45D-08 OVMax= 3.07D-05

 Cycle  12  Pass 1  IDiag  1:
 E= -939.848835457027     Delta-E=       -0.000000015707 Rises=F Damp=F
 DIIS: error= 5.21D-06 at cycle  12 NSaved=  12.
 NSaved=12 IEnMin=12 EnMin= -939.848835457027     IErMin=12 ErrMin= 5.21D-06
 ErrMax= 5.21D-06  0.00D+00 EMaxC= 1.00D-01 BMatC= 4.06D-09 BMatP= 2.01D-08
 IDIUse=1 WtCom= 1.00D+00 WtEn= 0.00D+00
 Coeff-Com: -0.692D-04 0.885D-04-0.417D-04 0.839D-05 0.124D-03 0.158D-04
 Coeff-Com: -0.300D-02-0.625D-02-0.107D-01 0.125D-01 0.162D+00 0.845D+00
 Coeff:     -0.692D-04 0.885D-04-0.417D-04 0.839D-05 0.124D-03 0.158D-04
 Coeff:     -0.300D-02-0.625D-02-0.107D-01 0.125D-01 0.162D+00 0.845D+00
 Gap=     0.096 Goal=   None    Shift=    0.000
 RMSDP=4.01D-07 MaxDP=9.35D-06 DE=-1.57D-08 OVMax= 2.69D-05

 Cycle  13  Pass 1  IDiag  1:
 E= -939.848835460561     Delta-E=       -0.000000003534 Rises=F Damp=F
 DIIS: error= 1.21D-06 at cycle  13 NSaved=  13.
 NSaved=13 IEnMin=13 EnMin= -939.848835460561     IErMin=13 ErrMin= 1.21D-06
 ErrMax= 1.21D-06  0.00D+00 EMaxC= 1.00D-01 BMatC= 2.74D-10 BMatP= 4.06D-09
 IDIUse=1 WtCom= 1.00D+00 WtEn= 0.00D+00
 Coeff-Com: -0.235D-04 0.358D-04-0.481D-05 0.121D-05 0.498D-04-0.581D-04
 Coeff-Com: -0.128D-02-0.267D-02-0.935D-02-0.203D-01 0.134D-01 0.334D+00
 Coeff-Com:  0.686D+00
 Coeff:     -0.235D-04 0.358D-04-0.481D-05 0.121D-05 0.498D-04-0.581D-04
 Coeff:     -0.128D-02-0.267D-02-0.935D-02-0.203D-01 0.134D-01 0.334D+00
 Coeff:      0.686D+00
 Gap=     0.096 Goal=   None    Shift=    0.000
 RMSDP=1.04D-07 MaxDP=2.58D-06 DE=-3.53D-09 OVMax= 5.89D-06

 Cycle  14  Pass 1  IDiag  1:
 E= -939.848835460781     Delta-E=       -0.000000000220 Rises=F Damp=F
 DIIS: error= 4.60D-07 at cycle  14 NSaved=  14.
 NSaved=14 IEnMin=14 EnMin= -939.848835460781     IErMin=14 ErrMin= 4.60D-07
 ErrMax= 4.60D-07  0.00D+00 EMaxC= 1.00D-01 BMatC= 3.09D-11 BMatP= 2.74D-10
 IDIUse=1 WtCom= 1.00D+00 WtEn= 0.00D+00
 Coeff-Com: -0.467D-05 0.699D-05 0.293D-06-0.245D-07 0.760D-05-0.155D-04
 Coeff-Com: -0.114D-03-0.277D-03-0.144D-02-0.578D-02-0.129D-01 0.766D-02
 Coeff-Com:  0.173D+00 0.840D+00
 Coeff:     -0.467D-05 0.699D-05 0.293D-06-0.245D-07 0.760D-05-0.155D-04
 Coeff:     -0.114D-03-0.277D-03-0.144D-02-0.578D-02-0.129D-01 0.766D-02
 Coeff:      0.173D+00 0.840D+00
 Gap=     0.096 Goal=   None    Shift=    0.000
 RMSDP=4.03D-08 MaxDP=7.63D-07 DE=-2.20D-10 OVMax= 2.75D-06

 Cycle  15  Pass 1  IDiag  1:
 E= -939.848835460809     Delta-E=       -0.000000000028 Rises=F Damp=F
 DIIS: error= 4.76D-08 at cycle  15 NSaved=  15.
 NSaved=15 IEnMin=15 EnMin= -939.848835460809     IErMin=15 ErrMin= 4.76D-08
 ErrMax= 4.76D-08  0.00D+00 EMaxC= 1.00D-01 BMatC= 3.95D-13 BMatP= 3.09D-11
 IDIUse=1 WtCom= 1.00D+00 WtEn= 0.00D+00
 Coeff-Com:  0.327D-06-0.563D-06 0.105D-06 0.147D-07-0.154D-05 0.527D-06
 Coeff-Com:  0.582D-04 0.110D-03 0.429D-03 0.235D-03-0.415D-02-0.235D-01
 Coeff-Com: -0.140D-01 0.186D+00 0.855D+00
 Coeff:      0.327D-06-0.563D-06 0.105D-06 0.147D-07-0.154D-05 0.527D-06
 Coeff:      0.582D-04 0.110D-03 0.429D-03 0.235D-03-0.415D-02-0.235D-01
 Coeff:     -0.140D-01 0.186D+00 0.855D+00
 Gap=     0.096 Goal=   None    Shift=    0.000
 RMSDP=7.25D-09 MaxDP=1.61D-07 DE=-2.84D-11 OVMax= 6.00D-07

 SCF Done:  E(RB3LYP) =  -939.848835461     A.U. after   15 cycles
            NFock= 15  Conv=0.73D-08     -V/T= 2.0051
 KE= 9.350853501529D+02 PE=-3.121028481855D+03 EE= 7.985605529426D+02
 Leave Link  502 at Tue Oct 27 18:22:24 2020, MaxMem=  4294967296 cpu:              68.0 elap:               5.0
 (Enter /n/sw/g16_nehalem/g16/l601.exe)
 Copying SCF densities to generalized density rwf, IOpCl= 0 IROHF=0.

 **********************************************************************

            Population analysis using the SCF density.

 **********************************************************************

 Orbital symmetries:
       Occupied  (A) (A) (A) (A) (A) (A) (A) (A) (A) (A) (A) (A)
                 (A) (A) (A) (A) (A) (A) (A) (A) (A) (A) (A) (A)
                 (A) (A) (A) (A) (A) (A) (A) (A) (A) (A) (A) (A)
       Virtual   (A) (A) (A) (A) (A) (A) (A) (A) (A) (A) (A) (A)
                 (A) (A) (A) (A) (A) (A) (A) (A) (A) (A) (A) (A)
                 (A) (A) (A) (A) (A) (A) (A) (A) (A) (A) (A) (A)
                 (A) (A) (A) (A) (A) (A) (A) (A) (A) (A) (A) (A)
                 (A) (A) (A) (A) (A) (A) (A) (A) (A) (A) (A) (A)
                 (A) (A) (A) (A) (A) (A) (A) (A) (A) (A) (A) (A)
                 (A) (A) (A) (A) (A) (A) (A) (A) (A) (A) (A) (A)
                 (A) (A) (A) (A) (A) (A) (A) (A) (A) (A) (A) (A)
                 (A) (A)
 The electronic state is 1-A.
 Alpha  occ. eigenvalues -- -101.54559 -38.54489 -19.11765 -14.45197 -14.35385
 Alpha  occ. eigenvalues --  -14.30112 -10.34897 -10.19423  -9.46747  -7.23082
 Alpha  occ. eigenvalues --   -7.22157  -7.22070  -2.28336  -1.21596  -1.21578
 Alpha  occ. eigenvalues --   -1.21400  -1.10010  -1.02464  -0.88608  -0.79635
 Alpha  occ. eigenvalues --   -0.73198  -0.60831  -0.53039  -0.47417  -0.46459
 Alpha  occ. eigenvalues --   -0.44800  -0.44224  -0.40641  -0.40073  -0.37828
 Alpha  occ. eigenvalues --   -0.33442  -0.31162  -0.29535  -0.26147  -0.17686
 Alpha  occ. eigenvalues --   -0.17509
 Alpha virt. eigenvalues --   -0.07959  -0.01125  -0.00800   0.01043   0.02178
 Alpha virt. eigenvalues --    0.05270   0.05503   0.06042   0.09750   0.10664
 Alpha virt. eigenvalues --    0.11837   0.14951   0.16219   0.16843   0.17899
 Alpha virt. eigenvalues --    0.19987   0.20749   0.29211   0.31904   0.32226
 Alpha virt. eigenvalues --    0.34816   0.35817   0.39435   0.44806   0.45371
 Alpha virt. eigenvalues --    0.46644   0.48790   0.50276   0.52655   0.56368
 Alpha virt. eigenvalues --    0.59150   0.62067   0.63883   0.68234   0.71381
 Alpha virt. eigenvalues --    0.72409   0.76344   0.78836   0.81365   0.81870
 Alpha virt. eigenvalues --    0.83269   0.86024   0.86544   0.88484   0.90166
 Alpha virt. eigenvalues --    0.91334   0.95738   0.96927   1.02375   1.04049
 Alpha virt. eigenvalues --    1.05140   1.05977   1.12660   1.14137   1.25245
 Alpha virt. eigenvalues --    1.29556   1.32002   1.38550   1.43153   1.46345
 Alpha virt. eigenvalues --    1.48065   1.49964   1.53603   1.54902   1.66021
 Alpha virt. eigenvalues --    1.74769   1.77343   1.80412   1.81012   1.84145
 Alpha virt. eigenvalues --    1.87251   1.93191   1.96885   2.01245   2.03298
 Alpha virt. eigenvalues --    2.04718   2.05710   2.14460   2.18211   2.20288
 Alpha virt. eigenvalues --    2.26627   2.33647   2.38253   2.46974   2.55104
 Alpha virt. eigenvalues --    2.70056   2.79285   2.88024   2.90810   2.94841
 Alpha virt. eigenvalues --    3.33836   3.46972   3.72504   3.99183   4.12984
 Alpha virt. eigenvalues --    4.25642   4.32526   4.52457
          Condensed to atoms (all electrons):
               1          2          3          4          5          6
     1  C    4.780855   0.339641   0.366270  -0.020462  -0.026590  -0.019465
     2  O    0.339641   8.298092  -0.063376   0.003460  -0.001302  -0.000240
     3  C    0.366270  -0.063376   5.262851   0.341837   0.359351   0.347881
     4  H   -0.020462   0.003460   0.341837   0.548871  -0.025865  -0.025803
     5  H   -0.026590  -0.001302   0.359351  -0.025865   0.538397  -0.025595
     6  H   -0.019465  -0.000240   0.347881  -0.025803  -0.025595   0.556316
     7  Cl   0.287249  -0.084952  -0.120919   0.003409   0.000516   0.006837
     8  N   -0.026530  -0.005666  -0.002191  -0.000016   0.000037  -0.000443
     9  N    0.001392  -0.059340  -0.058261   0.002185   0.003329  -0.000713
    10  N   -0.000345  -0.000022  -0.000024   0.000001   0.000000  -0.000028
    11  Na  -0.026391   0.158867   0.006858  -0.000252   0.000141   0.004829
               7          8          9         10         11
     1  C    0.287249  -0.026530   0.001392  -0.000345  -0.026391
     2  O   -0.084952  -0.005666  -0.059340  -0.000022   0.158867
     3  C   -0.120919  -0.002191  -0.058261  -0.000024   0.006858
     4  H    0.003409  -0.000016   0.002185   0.000001  -0.000252
     5  H    0.000516   0.000037   0.003329   0.000000   0.000141
     6  H    0.006837  -0.000443  -0.000713  -0.000028   0.004829
     7  Cl  16.887557   0.002263  -0.055958   0.000003   0.003352
     8  N    0.002263   6.085294   0.459888   0.387492  -0.000743
     9  N   -0.055958   0.459888   7.051640  -0.091597   0.015166
    10  N    0.000003   0.387492  -0.091597   7.118279   0.024538
    11  Na   0.003352  -0.000743   0.015166   0.024538  10.104438
 Mulliken charges:
               1
     1  C    0.344375
     2  O   -0.585162
     3  C   -0.440278
     4  H    0.172636
     5  H    0.177582
     6  H    0.156423
     7  Cl   0.070643
     8  N    0.100613
     9  N   -0.267731
    10  N   -0.438297
    11  Na   0.709196
 Sum of Mulliken charges =   0.00000
 Mulliken charges with hydrogens summed into heavy atoms:
               1
     1  C    0.344375
     2  O   -0.585162
     3  C    0.066363
     7  Cl   0.070643
     8  N    0.100613
     9  N   -0.267731
    10  N   -0.438297
    11  Na   0.709196
 Electronic spatial extent (au):  <R**2>=           1303.2608
 Charge=              0.0000 electrons
 Dipole moment (field-independent basis, Debye):
    X=              1.2469    Y=              8.1816    Z=              0.6616  Tot=              8.3025
 Quadrupole moment (field-independent basis, Debye-Ang):
   XX=            -67.9530   YY=            -40.4136   ZZ=            -50.5310
   XY=            -22.3649   XZ=              2.9215   YZ=             -1.9379
 Traceless Quadrupole moment (field-independent basis, Debye-Ang):
   XX=            -14.9871   YY=             12.5522   ZZ=              2.4349
   XY=            -22.3649   XZ=              2.9215   YZ=             -1.9379
 Octapole moment (field-independent basis, Debye-Ang**2):
  XXX=             62.9862  YYY=             75.8633  ZZZ=             -5.9547  XYY=            -19.2359
  XXY=             51.4465  XXZ=             -1.3926  XZZ=              0.2398  YZZ=             10.8409
  YYZ=             -7.2212  XYZ=              4.8996
 Hexadecapole moment (field-independent basis, Debye-Ang**3):
 XXXX=          -1149.8257 YYYY=           -297.1286 ZZZZ=           -240.1631 XXXY=           -155.4491
 XXXZ=             -0.8171 YYYX=           -132.4655 YYYZ=            -21.3912 ZZZX=             -0.8719
 ZZZY=             -6.9283 XXYY=           -228.5553 XXZZ=           -193.3801 YYZZ=           -101.0566
 XXYZ=             -2.8968 YYXZ=              5.9973 ZZXY=            -21.5817
 N-N= 4.475337432985D+02 E-N=-3.121028485386D+03  KE= 9.350853501529D+02
 No NMR shielding tensors so no spin-rotation constants.
 Leave Link  601 at Tue Oct 27 18:22:25 2020, MaxMem=  4294967296 cpu:               2.0 elap:               0.1
 (Enter /n/sw/g16_nehalem/g16/l701.exe)
 ... and contract with generalized density number  0.
 Compute integral first derivatives.
 R6Disp: Adding Grimme-D3(BJ) dispersion energy 1st derivatives to the gradient.
 Leave Link  701 at Tue Oct 27 18:22:26 2020, MaxMem=  4294967296 cpu:               2.0 elap:               0.1
 (Enter /n/sw/g16_nehalem/g16/l702.exe)
 L702 exits ... SP integral derivatives will be done elsewhere.
 Leave Link  702 at Tue Oct 27 18:22:26 2020, MaxMem=  4294967296 cpu:               1.9 elap:               0.1
 (Enter /n/sw/g16_nehalem/g16/l703.exe)
 Integral derivatives from FoFJK, PRISM(SPDF).
 Compute integral first derivatives, UseDBF=F ICtDFT=           0.
 Calling FoFJK, ICntrl=      2127 FMM=F ISym2X=0 I1Cent= 0 IOpClX= 0 NMat=1 NMatS=1 NMatT=0.
 FoFJK:  IHMeth= 1 ICntrl=    2127 DoSepK=F KAlg= 0 I1Cent=           0 FoldK=F
 IRaf=         0 NMat=       1 IRICut=       1 DoRegI=T DoRafI=F ISym2E= 0 IDoP0=0 IntGTp=1.
 FoFCou: FMM=F IPFlag=           0 FMFlag=      100000 FMFlg1=         800
         NFxFlg=           0 DoJE=F BraDBF=F KetDBF=F FulRan=T
         wScrn=  0.000000 ICntrl=      2127 IOpCl=  0 I1Cent=           0 NGrid=           0
         NMat0=    1 NMatS0=      1 NMatT0=    0 NMatD0=    1 NMtDS0=    0 NMtDT0=    0
 Symmetry not used in FoFCou.
 Leave Link  703 at Tue Oct 27 18:22:28 2020, MaxMem=  4294967296 cpu:              19.6 elap:               1.3
 (Enter /n/sw/g16_nehalem/g16/l716.exe)
 Dipole        = 4.90584149D-01 3.21888896D+00 2.60287263D-01
 ***** Axes restored to original set *****
 -------------------------------------------------------------------
 Center     Atomic                   Forces (Hartrees/Bohr)
 Number     Number              X              Y              Z
 -------------------------------------------------------------------
      1        6           0.028727500   -0.117908347   -0.048078018
      2        8           0.009427792    0.006716978    0.018982258
      3        6           0.012570775    0.004265153   -0.001618244
      4        1           0.000311322    0.000575038   -0.003752846
      5        1           0.002011923    0.002852759   -0.001620920
      6        1          -0.000205480    0.000150451    0.000682505
      7       17          -0.063251851    0.097633742    0.029231286
      8        7           0.392163604    0.084811095    0.004829878
      9        7          -0.214064182   -0.041485897    0.006846342
     10        7          -0.172351428   -0.041269097   -0.008112882
     11       11           0.004660025    0.003658127    0.002610641
 -------------------------------------------------------------------
 Cartesian Forces:  Max     0.392163604 RMS     0.090828781
 Leave Link  716 at Tue Oct 27 18:22:28 2020, MaxMem=  4294967296 cpu:               0.4 elap:               0.0
 (Enter /n/sw/g16_nehalem/g16/l103.exe)

 GradGradGradGradGradGradGradGradGradGradGradGradGradGradGradGradGradGrad
 Berny optimization.
 FormGI is forming the generalized inverse of G from B-inverse, IUseBI=4.
 Internal  Forces:  Max     0.223849023 RMS     0.050486119
 Search for a local minimum.
 Step number   1 out of a maximum of   49 on scan point     1 out of    51
 All quantities printed in internal units (Hartrees-Bohrs-Radians)
 RMS Force = .51135D-01 SwitMx=.10000D-02 MixMth= 1
 Mixed Optimization -- RFO/linear search
 Second derivative matrix not updated -- first step.
 ITU=  0
     Eigenvalues ---    0.00230   0.01295   0.01295   0.03045   0.05330
     Eigenvalues ---    0.05369   0.05369   0.05908   0.06675   0.09584
     Eigenvalues ---    0.13012   0.16000   0.16000   0.16000   0.18161
     Eigenvalues ---    0.22252   0.25000   0.25000   0.26946   0.33918
     Eigenvalues ---    0.33999   0.34275   0.45621   0.51218   0.67840
     Eigenvalues ---    1.850371000.000001000.000001000.000001000.00000
     Eigenvalues --- 1000.000001000.000001000.000001000.000001000.00000
     Eigenvalues --- 1000.000001000.000001000.000001000.00000
 RFO step:  Lambda=-1.18008135D-01 EMin= 2.30000000D-03
 Linear search not attempted -- first point.
 Maximum step size (   0.300) exceeded in Quadratic search.
    -- Step size scaled by   0.666
 Iteration  1 RMS(Cart)=  0.13157936 RMS(Int)=  0.00827022
 Iteration  2 RMS(Cart)=  0.00891759 RMS(Int)=  0.00026515
 Iteration  3 RMS(Cart)=  0.00006063 RMS(Int)=  0.00026217
 Iteration  4 RMS(Cart)=  0.00000001 RMS(Int)=  0.00026217
 Iteration  1 RMS(Cart)=  0.00000000 RMS(Int)=  0.00000000
 ITry= 1 IFail=0 DXMaxC= 4.20D-01 DCOld= 1.00D+10 DXMaxT= 3.00D-01 DXLimC= 3.00D+00 Rises=F
 Variable       Old X    -DE/DX   Delta X   Delta X   Delta X     New X
                                 (Linear)    (Quad)   (Total)
    R1        2.45227  -0.02429   0.00000  -0.02030  -0.02030   2.43197
    R2        2.94503  -0.01130   0.00000  -0.01942  -0.01942   2.92561
    R3        3.02356   0.11946   0.00000   0.12618   0.12618   3.14975
    R4        3.36023   0.00664   0.00000   0.00000   0.00000   3.36023
    R5        3.89284   0.00200   0.00000   0.00537   0.00537   3.89820
    R6        2.07331  -0.00334   0.00000  -0.00485  -0.00485   2.06846
    R7        2.07468  -0.00279   0.00000  -0.00406  -0.00406   2.07063
    R8        2.06868  -0.00040   0.00000  -0.00057  -0.00057   2.06811
    R9        2.06358   0.22385   0.00000   0.07570   0.07570   2.13928
   R10        2.64562  -0.17736   0.00000  -0.20560  -0.20560   2.44002
    A1        1.99667   0.00987   0.00000   0.02104   0.02039   2.01705
    A2        2.01908  -0.00175   0.00000   0.00736   0.00626   2.02534
    A3        1.88846  -0.01390   0.00000  -0.04196  -0.04183   1.84664
    A4        1.92419   0.00831   0.00000   0.02586   0.02516   1.94935
    A5        1.78114  -0.00426   0.00000  -0.01599  -0.01574   1.76540
    A6        1.83007  -0.00079   0.00000  -0.00552  -0.00540   1.82467
    A7        2.09440  -0.02138   0.00000  -0.03867  -0.03867   2.05573
    A8        1.97398  -0.00221   0.00000  -0.00545  -0.00546   1.96851
    A9        1.87942  -0.00357   0.00000  -0.00871  -0.00872   1.87070
   A10        1.90140   0.00179   0.00000   0.00460   0.00461   1.90600
   A11        1.90356   0.00254   0.00000   0.00550   0.00547   1.90903
   A12        1.90837   0.00037   0.00000   0.00113   0.00113   1.90950
   A13        1.89554   0.00116   0.00000   0.00314   0.00315   1.89870
   A14        3.14159  -0.01143   0.00000  -0.05808  -0.05808   3.08351
   A15        2.94732  -0.03323   0.00000  -0.12884  -0.12884   2.81848
   A16        3.14159   0.00022   0.00000   0.00110   0.00110   3.14269
   A17        3.18133   0.00436   0.00000   0.01689   0.01689   3.19822
    D1       -1.68885   0.00653   0.00000   0.01956   0.01965  -1.66920
    D2        2.32922  -0.01401   0.00000  -0.04730  -0.04725   2.28197
    D3        0.28313  -0.00206   0.00000  -0.01503  -0.01517   0.26796
    D4        3.04510  -0.00942   0.00000  -0.03389  -0.03417   3.01094
    D5       -1.13357  -0.01006   0.00000  -0.03635  -0.03660  -1.17017
    D6        0.91915  -0.00969   0.00000  -0.03497  -0.03524   0.88391
    D7       -0.92685   0.00502   0.00000   0.02046   0.02074  -0.90611
    D8        1.17766   0.00438   0.00000   0.01800   0.01830   1.19596
    D9       -3.05280   0.00474   0.00000   0.01938   0.01967  -3.03314
   D10        1.01026   0.00517   0.00000   0.01618   0.01614   1.02640
   D11        3.11477   0.00453   0.00000   0.01372   0.01371   3.12848
   D12       -1.11569   0.00490   0.00000   0.01510   0.01507  -1.10062
         Item               Value     Threshold  Converged?
 Maximum Force            0.223849     0.000450     NO 
 RMS     Force            0.051135     0.000300     NO 
 Maximum Displacement     0.419565     0.001800     NO 
 RMS     Displacement     0.131277     0.001200     NO 
 Predicted change in Energy=-5.821584D-02
 Lowest energy point so far.  Saving SCF results.
 GradGradGradGradGradGradGradGradGradGradGradGradGradGradGradGradGradGrad

 Leave Link  103 at Tue Oct 27 18:22:28 2020, MaxMem=  4294967296 cpu:               0.9 elap:               0.1
 (Enter /n/sw/g16_nehalem/g16/l202.exe)
                          Input orientation:                          
 ---------------------------------------------------------------------
 Center     Atomic      Atomic             Coordinates (Angstroms)
 Number     Number       Type             X           Y           Z
 ---------------------------------------------------------------------
      1          6           0       -0.219274   -0.299227   -0.197905
      2          8           0       -0.194651   -0.646775   -1.436787
      3          6           0       -0.332179   -1.460481    0.819721
      4          1           0       -0.218292   -1.128266    1.856435
      5          1           0       -1.322645   -1.910443    0.688835
      6          1           0        0.429511   -2.212969    0.593249
      7         17           0       -1.240432    0.960098    0.188710
      8          7           0        2.521718    0.511017    0.094089
      9          7           0        1.408388    0.318332    0.164280
     10          7           0        3.791031    0.696698   -0.052768
     11         11           0        1.647775   -0.850227   -2.341984
 ---------------------------------------------------------------------
                    Distance matrix (angstroms):
                    1          2          3          4          5
     1  C    0.000000
     2  O    1.286944   0.000000
     3  C    1.548166   2.402677   0.000000
     4  H    2.215315   3.328318   1.094584   0.000000
     5  H    2.144702   2.717995   1.095728   1.787368   0.000000
     6  H    2.170082   2.638861   1.094395   1.786579   1.780649
     7  Cl   1.666774   2.513551   2.661259   2.861353   2.914942
     8  N    2.873116   3.326067   3.543737   3.647022   4.582173
     9  N    1.778157   2.462637   2.573587   2.757195   3.563865
    10  N    4.134668   4.427876   4.734502   4.801064   5.787645
    11  Na   2.895954   2.062840   3.780080   4.602851   4.374165
                    6          7          8          9         10
     6  H    0.000000
     7  Cl   3.608423   0.000000
     8  N    3.470819   3.790039   0.000000
     9  N    2.747671   2.725566   1.132059   0.000000
    10  N    4.492584   5.044136   1.291201   2.422242   0.000000
    11  Na   3.457865   4.245401   2.924246   2.775643   3.496717
                   11
    11  Na   0.000000
 Stoichiometry    C2H3ClN3NaO
 Framework group  C1[X(C2H3ClN3NaO)]
 Deg. of freedom    27
 Full point group                 C1      NOp   1
 RotChk:  IX=0 Diff= 1.25D-01
 Largest Abelian subgroup         C1      NOp   1
 Largest concise Abelian subgroup C1      NOp   1
                         Standard orientation:                         
 ---------------------------------------------------------------------
 Center     Atomic      Atomic             Coordinates (Angstroms)
 Number     Number       Type             X           Y           Z
 ---------------------------------------------------------------------
      1          6           0        0.856735    0.186704    0.189594
      2          8           0        0.538800    1.363893   -0.221950
      3          6           0        1.191687    0.073630    1.696856
      4          1           0        1.327462   -0.961918    2.024451
      5          1           0        2.118839    0.632782    1.865260
      6          1           0        0.389716    0.537208    2.279640
      7         17           0        1.954152   -0.645213   -0.749408
      8          7           0       -1.730382   -1.053839    0.039028
      9          7           0       -0.633811   -0.778290    0.095251
     10          7           0       -2.996621   -1.295418   -0.034991
     11         11           0       -1.466530    1.834567   -0.333411
 ---------------------------------------------------------------------
 Rotational constants (GHZ):           2.0912425           1.0895052           0.8949537
 Leave Link  202 at Tue Oct 27 18:22:28 2020, MaxMem=  4294967296 cpu:               0.1 elap:               0.0
 (Enter /n/sw/g16_nehalem/g16/l301.exe)
 Standard basis: 6-31G(d) (6D, 7F)
 Ernie: Thresh=  0.10000D-02 Tol=  0.10000D-05 Strict=F.
 There are   134 symmetry adapted cartesian basis functions of A   symmetry.
 There are   134 symmetry adapted basis functions of A   symmetry.
   134 basis functions,   284 primitive gaussians,   134 cartesian basis functions
    36 alpha electrons       36 beta electrons
       nuclear repulsion energy       450.3648145827 Hartrees.
 IExCor=  402 DFT=T Ex+Corr=B3LYP ExCW=0 ScaHFX=  0.200000
 ScaDFX=  0.800000  0.720000  1.000000  0.810000 ScalE2=  1.000000  1.000000
 IRadAn=      5 IRanWt=     -1 IRanGd=            0 ICorTp=0 IEmpDi=141
 NAtoms=   11 NActive=   11 NUniq=   11 SFac= 1.00D+00 NAtFMM=   60 NAOKFM=F Big=F
 Integral buffers will be    131072 words long.
 Raffenetti 2 integral format.
 Two-electron integral symmetry is turned on.
 R6Disp:  Grimme-D3(BJ) Dispersion energy=       -0.0199330423 Hartrees.
 Nuclear repulsion after empirical dispersion term =      450.3448815405 Hartrees.
 Leave Link  301 at Tue Oct 27 18:22:29 2020, MaxMem=  4294967296 cpu:               1.1 elap:               0.1
 (Enter /n/sw/g16_nehalem/g16/l302.exe)
 NPDir=0 NMtPBC=     1 NCelOv=     1 NCel=       1 NClECP=     1 NCelD=      1
         NCelK=      1 NCelE2=     1 NClLst=     1 CellRange=     0.0.
 One-electron integrals computed using PRISM.
 One-electron integral symmetry used in STVInt
 NBasis=   134 RedAO= T EigKep=  7.11D-04  NBF=   134
 NBsUse=   134 1.00D-06 EigRej= -1.00D+00 NBFU=   134
 Precomputing XC quadrature grid using
 IXCGrd= 4 IRadAn=           5 IRanWt=          -1 IRanGd=           0 AccXCQ= 0.00D+00.
 Generated NRdTot=       0 NPtTot=           0 NUsed=           0 NTot=          32
 NSgBfM=   134   134   134   134   134 MxSgAt=    11 MxSgA2=    11.
 Leave Link  302 at Tue Oct 27 18:22:29 2020, MaxMem=  4294967296 cpu:               2.9 elap:               0.2
 (Enter /n/sw/g16_nehalem/g16/l303.exe)
 DipDrv:  MaxL=1.
 Leave Link  303 at Tue Oct 27 18:22:29 2020, MaxMem=  4294967296 cpu:               0.3 elap:               0.0
 (Enter /n/sw/g16_nehalem/g16/l401.exe)
 Initial guess from the checkpoint file:  "/scratch/Gau-216769.chk"
 B after Tr=     0.000000    0.000000    0.000000
         Rot=    0.998866    0.015546    0.004228   -0.044810 Ang=   5.46 deg.
 Guess basis will be translated and rotated to current coordinates.
 JPrj=2 DoOrth=T DoCkMO=T.
 Generating alternative initial guess.
 ExpMin= 2.60D-02 ExpMax= 2.52D+04 ExpMxC= 3.78D+03 IAcc=3 IRadAn=         5 AccDes= 0.00D+00
 Harris functional with IExCor=  402 and IRadAn=       5 diagonalized for initial guess.
 HarFok:  IExCor=  402 AccDes= 0.00D+00 IRadAn=         5 IDoV= 1 UseB2=F ITyADJ=14
 ICtDFT=  3500011 ScaDFX=  1.000000  1.000000  1.000000  1.000000
 FoFCou: FMM=F IPFlag=           0 FMFlag=      100000 FMFlg1=           0
         NFxFlg=           0 DoJE=T BraDBF=F KetDBF=T FulRan=T
         wScrn=  0.000000 ICntrl=       500 IOpCl=  0 I1Cent=   200000004 NGrid=           0
         NMat0=    1 NMatS0=      1 NMatT0=    0 NMatD0=    1 NMtDS0=    0 NMtDT0=    0
 Petite list used in FoFCou.
 Harris En= -939.879499480478    
 Leave Link  401 at Tue Oct 27 18:22:29 2020, MaxMem=  4294967296 cpu:               6.1 elap:               0.4
 (Enter /n/sw/g16_nehalem/g16/l502.exe)
 Keep R1 ints in memory in canonical form, NReq=56246956.
 FoFCou: FMM=F IPFlag=           0 FMFlag=           0 FMFlg1=           0
         NFxFlg=           0 DoJE=F BraDBF=F KetDBF=F FulRan=T
         wScrn=  0.000000 ICntrl=       600 IOpCl=  0 I1Cent=           0 NGrid=           0
         NMat0=    1 NMatS0=   9045 NMatT0=    0 NMatD0=    1 NMtDS0=    0 NMtDT0=    0
 Symmetry not used in FoFCou.
 Two-electron integral symmetry not used.
 Closed shell SCF:
 Using DIIS extrapolation, IDIIS=  1040.
 NGot=  4294967296 LenX=  4254017214 LenY=  4253998817
 Requested convergence on RMS density matrix=1.00D-08 within 128 cycles.
 Requested convergence on MAX density matrix=1.00D-06.
 Requested convergence on             energy=1.00D-06.
 No special actions if energy rises.

 Cycle   1  Pass 1  IDiag  1:
 E= -939.871932087986    
 DIIS: error= 1.19D-02 at cycle   1 NSaved=   1.
 NSaved= 1 IEnMin= 1 EnMin= -939.871932087986     IErMin= 1 ErrMin= 1.19D-02
 ErrMax= 1.19D-02  0.00D+00 EMaxC= 1.00D-01 BMatC= 2.55D-02 BMatP= 2.55D-02
 IDIUse=3 WtCom= 8.81D-01 WtEn= 1.19D-01
 Coeff-Com:  0.100D+01
 Coeff-En:   0.100D+01
 Coeff:      0.100D+01
 Recover alternate guess density for next cycle.
 RMSDP=4.75D-03 MaxDP=9.09D-02              OVMax= 0.00D+00

 Cycle   2  Pass 1  IDiag  1:
 E= -939.657222070354     Delta-E=        0.214710017631 Rises=F Damp=F
 Switch densities from cycles 1 and 2 for lowest energy.
 DIIS: error= 2.58D-02 at cycle   2 NSaved=   2.
 NSaved= 2 IEnMin= 1 EnMin= -939.871932087986     IErMin= 1 ErrMin= 1.19D-02
 ErrMax= 2.58D-02  0.00D+00 EMaxC= 1.00D+00 BMatC= 3.13D-01 BMatP= 2.55D-02
 IDIUse=1 WtCom= 1.00D+00 WtEn= 0.00D+00
 Coeff-Com:  0.913D+00 0.870D-01
 Coeff:      0.913D+00 0.870D-01
 Gap=     0.197 Goal=   None    Shift=    0.000
 RMSDP=2.48D-03 MaxDP=5.10D-02 DE= 2.15D-01 OVMax= 1.28D-01

 Cycle   3  Pass 1  IDiag  1:
 E= -939.909894949618     Delta-E=       -0.252672879264 Rises=F Damp=F
 DIIS: error= 4.38D-03 at cycle   3 NSaved=   3.
 NSaved= 3 IEnMin= 3 EnMin= -939.909894949618     IErMin= 3 ErrMin= 4.38D-03
 ErrMax= 4.38D-03  0.00D+00 EMaxC= 1.00D+00 BMatC= 8.79D-03 BMatP= 2.55D-02
 IDIUse=1 WtCom= 1.00D+00 WtEn= 0.00D+00
 Coeff-Com:  0.953D-01 0.115D+00 0.790D+00
 Coeff:      0.953D-01 0.115D+00 0.790D+00
 Gap=     0.121 Goal=   None    Shift=    0.000
 RMSDP=1.02D-03 MaxDP=2.09D-02 DE=-2.53D-01 OVMax= 4.11D-02

 Cycle   4  Pass 1  IDiag  1:
 E= -939.909320843293     Delta-E=        0.000574106325 Rises=F Damp=F
 DIIS: error= 5.28D-03 at cycle   4 NSaved=   4.
 NSaved= 4 IEnMin= 3 EnMin= -939.909894949618     IErMin= 3 ErrMin= 4.38D-03
 ErrMax= 5.28D-03  0.00D+00 EMaxC= 1.00D+00 BMatC= 8.59D-03 BMatP= 8.79D-03
 IDIUse=1 WtCom= 1.00D+00 WtEn= 0.00D+00
 Coeff-Com: -0.250D-01 0.858D-01 0.602D+00 0.338D+00
 Coeff:     -0.250D-01 0.858D-01 0.602D+00 0.338D+00
 Gap=     0.127 Goal=   None    Shift=    0.000
 RMSDP=7.79D-04 MaxDP=2.14D-02 DE= 5.74D-04 OVMax= 4.77D-02

 Cycle   5  Pass 1  IDiag  1:
 E= -939.915040531748     Delta-E=       -0.005719688455 Rises=F Damp=F
 DIIS: error= 4.32D-03 at cycle   5 NSaved=   5.
 NSaved= 5 IEnMin= 5 EnMin= -939.915040531748     IErMin= 5 ErrMin= 4.32D-03
 ErrMax= 4.32D-03  0.00D+00 EMaxC= 1.00D+00 BMatC= 2.23D-03 BMatP= 8.59D-03
 IDIUse=1 WtCom= 1.00D+00 WtEn= 0.00D+00
 Coeff-Com: -0.200D-01 0.352D-01 0.318D+00 0.290D+00 0.377D+00
 Coeff:     -0.200D-01 0.352D-01 0.318D+00 0.290D+00 0.377D+00
 Gap=     0.129 Goal=   None    Shift=    0.000
 RMSDP=3.02D-04 MaxDP=7.98D-03 DE=-5.72D-03 OVMax= 1.75D-02

 Cycle   6  Pass 1  IDiag  1:
 E= -939.916978489905     Delta-E=       -0.001937958157 Rises=F Damp=F
 DIIS: error= 5.82D-04 at cycle   6 NSaved=   6.
 NSaved= 6 IEnMin= 6 EnMin= -939.916978489905     IErMin= 6 ErrMin= 5.82D-04
 ErrMax= 5.82D-04  0.00D+00 EMaxC= 1.00D+00 BMatC= 7.87D-05 BMatP= 2.23D-03
 IDIUse=1 WtCom= 1.00D+00 WtEn= 0.00D+00
 Coeff-Com: -0.661D-02 0.460D-02 0.648D-01 0.105D+00 0.216D+00 0.616D+00
 Coeff:     -0.661D-02 0.460D-02 0.648D-01 0.105D+00 0.216D+00 0.616D+00
 Gap=     0.129 Goal=   None    Shift=    0.000
 RMSDP=5.99D-05 MaxDP=1.42D-03 DE=-1.94D-03 OVMax= 1.61D-03

 Cycle   7  Pass 1  IDiag  1:
 E= -939.917042181670     Delta-E=       -0.000063691765 Rises=F Damp=F
 DIIS: error= 1.12D-04 at cycle   7 NSaved=   7.
 NSaved= 7 IEnMin= 7 EnMin= -939.917042181670     IErMin= 7 ErrMin= 1.12D-04
 ErrMax= 1.12D-04  0.00D+00 EMaxC= 1.00D+00 BMatC= 5.19D-06 BMatP= 7.87D-05
 IDIUse=1 WtCom= 1.00D+00 WtEn= 0.00D+00
 Coeff-Com: -0.288D-02 0.111D-02 0.215D-01 0.449D-01 0.105D+00 0.338D+00
 Coeff-Com:  0.493D+00
 Coeff:     -0.288D-02 0.111D-02 0.215D-01 0.449D-01 0.105D+00 0.338D+00
 Coeff:      0.493D+00
 Gap=     0.129 Goal=   None    Shift=    0.000
 RMSDP=1.99D-05 MaxDP=3.74D-04 DE=-6.37D-05 OVMax= 6.10D-04

 Cycle   8  Pass 1  IDiag  1:
 E= -939.917045862689     Delta-E=       -0.000003681019 Rises=F Damp=F
 DIIS: error= 4.35D-05 at cycle   8 NSaved=   8.
 NSaved= 8 IEnMin= 8 EnMin= -939.917045862689     IErMin= 8 ErrMin= 4.35D-05
 ErrMax= 4.35D-05  0.00D+00 EMaxC= 1.00D+00 BMatC= 8.76D-07 BMatP= 5.19D-06
 IDIUse=1 WtCom= 1.00D+00 WtEn= 0.00D+00
 Coeff-Com: -0.675D-03-0.146D-03 0.364D-02 0.124D-01 0.375D-01 0.124D+00
 Coeff-Com:  0.307D+00 0.517D+00
 Coeff:     -0.675D-03-0.146D-03 0.364D-02 0.124D-01 0.375D-01 0.124D+00
 Coeff:      0.307D+00 0.517D+00
 Gap=     0.129 Goal=   None    Shift=    0.000
 RMSDP=6.16D-06 MaxDP=1.56D-04 DE=-3.68D-06 OVMax= 1.72D-04

 Cycle   9  Pass 1  IDiag  1:
 E= -939.917046509814     Delta-E=       -0.000000647124 Rises=F Damp=F
 DIIS: error= 1.11D-05 at cycle   9 NSaved=   9.
 NSaved= 9 IEnMin= 9 EnMin= -939.917046509814     IErMin= 9 ErrMin= 1.11D-05
 ErrMax= 1.11D-05  0.00D+00 EMaxC= 1.00D+00 BMatC= 4.12D-08 BMatP= 8.76D-07
 IDIUse=1 WtCom= 1.00D+00 WtEn= 0.00D+00
 Coeff-Com: -0.748D-04-0.157D-03-0.611D-03 0.403D-03 0.686D-02 0.196D-01
 Coeff-Com:  0.823D-01 0.199D+00 0.693D+00
 Coeff:     -0.748D-04-0.157D-03-0.611D-03 0.403D-03 0.686D-02 0.196D-01
 Coeff:      0.823D-01 0.199D+00 0.693D+00
 Gap=     0.129 Goal=   None    Shift=    0.000
 RMSDP=1.66D-06 MaxDP=3.40D-05 DE=-6.47D-07 OVMax= 5.51D-05

 Cycle  10  Pass 1  IDiag  1:
 E= -939.917046545573     Delta-E=       -0.000000035759 Rises=F Damp=F
 DIIS: error= 3.36D-06 at cycle  10 NSaved=  10.
 NSaved=10 IEnMin=10 EnMin= -939.917046545573     IErMin=10 ErrMin= 3.36D-06
 ErrMax= 3.36D-06  0.00D+00 EMaxC= 1.00D+00 BMatC= 2.53D-09 BMatP= 4.12D-08
 IDIUse=1 WtCom= 1.00D+00 WtEn= 0.00D+00
 Coeff-Com:  0.271D-04-0.299D-04-0.485D-03-0.888D-03-0.122D-03-0.236D-02
 Coeff-Com:  0.601D-02 0.248D-01 0.238D+00 0.735D+00
 Coeff:      0.271D-04-0.299D-04-0.485D-03-0.888D-03-0.122D-03-0.236D-02
 Coeff:      0.601D-02 0.248D-01 0.238D+00 0.735D+00
 Gap=     0.129 Goal=   None    Shift=    0.000
 RMSDP=4.46D-07 MaxDP=7.88D-06 DE=-3.58D-08 OVMax= 1.96D-05

 Cycle  11  Pass 1  IDiag  1:
 E= -939.917046547909     Delta-E=       -0.000000002336 Rises=F Damp=F
 DIIS: error= 6.03D-07 at cycle  11 NSaved=  11.
 NSaved=11 IEnMin=11 EnMin= -939.917046547909     IErMin=11 ErrMin= 6.03D-07
 ErrMax= 6.03D-07  0.00D+00 EMaxC= 1.00D+00 BMatC= 1.38D-10 BMatP= 2.53D-09
 IDIUse=1 WtCom= 1.00D+00 WtEn= 0.00D+00
 Coeff-Com:  0.119D-04 0.132D-06-0.133D-03-0.360D-03-0.305D-03-0.177D-02
 Coeff-Com: -0.134D-02-0.994D-03 0.530D-01 0.279D+00 0.673D+00
 Coeff:      0.119D-04 0.132D-06-0.133D-03-0.360D-03-0.305D-03-0.177D-02
 Coeff:     -0.134D-02-0.994D-03 0.530D-01 0.279D+00 0.673D+00
 Gap=     0.129 Goal=   None    Shift=    0.000
 RMSDP=1.34D-07 MaxDP=4.57D-06 DE=-2.34D-09 OVMax= 4.22D-06

 Cycle  12  Pass 1  IDiag  1:
 E= -939.917046548057     Delta-E=       -0.000000000147 Rises=F Damp=F
 DIIS: error= 1.08D-07 at cycle  12 NSaved=  12.
 NSaved=12 IEnMin=12 EnMin= -939.917046548057     IErMin=12 ErrMin= 1.08D-07
 ErrMax= 1.08D-07  0.00D+00 EMaxC= 1.00D+00 BMatC= 5.34D-12 BMatP= 1.38D-10
 IDIUse=1 WtCom= 1.00D+00 WtEn= 0.00D+00
 Coeff-Com:  0.203D-05 0.113D-05-0.104D-04-0.523D-04-0.680D-04-0.332D-03
 Coeff-Com: -0.509D-03-0.193D-02-0.105D-02 0.346D-01 0.208D+00 0.761D+00
 Coeff:      0.203D-05 0.113D-05-0.104D-04-0.523D-04-0.680D-04-0.332D-03
 Coeff:     -0.509D-03-0.193D-02-0.105D-02 0.346D-01 0.208D+00 0.761D+00
 Gap=     0.129 Goal=   None    Shift=    0.000
 RMSDP=3.31D-08 MaxDP=9.59D-07 DE=-1.47D-10 OVMax= 1.89D-06

 Cycle  13  Pass 1  IDiag  1:
 E= -939.917046548060     Delta-E=       -0.000000000004 Rises=F Damp=F
 DIIS: error= 4.53D-08 at cycle  13 NSaved=  13.
 NSaved=13 IEnMin=13 EnMin= -939.917046548060     IErMin=13 ErrMin= 4.53D-08
 ErrMax= 4.53D-08  0.00D+00 EMaxC= 1.00D+00 BMatC= 6.46D-13 BMatP= 5.34D-12
 IDIUse=1 WtCom= 1.00D+00 WtEn= 0.00D+00
 Coeff-Com: -0.219D-06 0.603D-06 0.701D-05 0.734D-05-0.483D-05 0.289D-05
 Coeff-Com: -0.925D-04-0.782D-03-0.556D-02-0.903D-02 0.294D-01 0.314D+00
 Coeff-Com:  0.672D+00
 Coeff:     -0.219D-06 0.603D-06 0.701D-05 0.734D-05-0.483D-05 0.289D-05
 Coeff:     -0.925D-04-0.782D-03-0.556D-02-0.903D-02 0.294D-01 0.314D+00
 Coeff:      0.672D+00
 Gap=     0.129 Goal=   None    Shift=    0.000
 RMSDP=1.13D-08 MaxDP=1.71D-07 DE=-3.64D-12 OVMax= 6.23D-07

 Cycle  14  Pass 1  IDiag  1:
 E= -939.917046548071     Delta-E=       -0.000000000011 Rises=F Damp=F
 DIIS: error= 1.39D-08 at cycle  14 NSaved=  14.
 NSaved=14 IEnMin=14 EnMin= -939.917046548071     IErMin=14 ErrMin= 1.39D-08
 ErrMax= 1.39D-08  0.00D+00 EMaxC= 1.00D+00 BMatC= 8.53D-14 BMatP= 6.46D-13
 IDIUse=1 WtCom= 1.00D+00 WtEn= 0.00D+00
 Coeff-Com: -0.303D-06 0.187D-06 0.444D-05 0.859D-05 0.201D-05 0.284D-04
 Coeff-Com: -0.247D-05-0.211D-03-0.281D-02-0.817D-02-0.769D-02 0.799D-01
 Coeff-Com:  0.323D+00 0.616D+00
 Coeff:     -0.303D-06 0.187D-06 0.444D-05 0.859D-05 0.201D-05 0.284D-04
 Coeff:     -0.247D-05-0.211D-03-0.281D-02-0.817D-02-0.769D-02 0.799D-01
 Coeff:      0.323D+00 0.616D+00
 Gap=     0.129 Goal=   None    Shift=    0.000
 RMSDP=3.68D-09 MaxDP=9.46D-08 DE=-1.09D-11 OVMax= 1.93D-07

 SCF Done:  E(RB3LYP) =  -939.917046548     A.U. after   14 cycles
            NFock= 14  Conv=0.37D-08     -V/T= 2.0053
 KE= 9.349441704787D+02 PE=-3.126622731913D+03 EE= 8.014166333453D+02
 Leave Link  502 at Tue Oct 27 18:22:34 2020, MaxMem=  4294967296 cpu:              66.6 elap:               5.0
 (Enter /n/sw/g16_nehalem/g16/l701.exe)
 ... and contract with generalized density number  0.
 Compute integral first derivatives.
 R6Disp: Adding Grimme-D3(BJ) dispersion energy 1st derivatives to the gradient.
 Leave Link  701 at Tue Oct 27 18:22:35 2020, MaxMem=  4294967296 cpu:               2.0 elap:               0.1
 (Enter /n/sw/g16_nehalem/g16/l702.exe)
 L702 exits ... SP integral derivatives will be done elsewhere.
 Leave Link  702 at Tue Oct 27 18:22:35 2020, MaxMem=  4294967296 cpu:               0.3 elap:               0.0
 (Enter /n/sw/g16_nehalem/g16/l703.exe)
 Integral derivatives from FoFJK, PRISM(SPDF).
 Compute integral first derivatives, UseDBF=F ICtDFT=           0.
 Calling FoFJK, ICntrl=      2127 FMM=F ISym2X=0 I1Cent= 0 IOpClX= 0 NMat=1 NMatS=1 NMatT=0.
 FoFJK:  IHMeth= 1 ICntrl=    2127 DoSepK=F KAlg= 0 I1Cent=           0 FoldK=F
 IRaf=         0 NMat=       1 IRICut=       1 DoRegI=T DoRafI=F ISym2E= 0 IDoP0=0 IntGTp=1.
 FoFCou: FMM=F IPFlag=           0 FMFlag=      100000 FMFlg1=         800
         NFxFlg=           0 DoJE=F BraDBF=F KetDBF=F FulRan=T
         wScrn=  0.000000 ICntrl=      2127 IOpCl=  0 I1Cent=           0 NGrid=           0
         NMat0=    1 NMatS0=      1 NMatT0=    0 NMatD0=    1 NMtDS0=    0 NMtDT0=    0
 Symmetry not used in FoFCou.
 Leave Link  703 at Tue Oct 27 18:22:36 2020, MaxMem=  4294967296 cpu:              13.4 elap:               0.9
 (Enter /n/sw/g16_nehalem/g16/l716.exe)
 Dipole        =-2.14923091D-01 2.66936541D+00 2.59433743D-01
 ***** Axes restored to original set *****
 -------------------------------------------------------------------
 Center     Atomic                   Forces (Hartrees/Bohr)
 Number     Number              X              Y              Z
 -------------------------------------------------------------------
      1        6           0.021988250   -0.081334798   -0.042826162
      2        8          -0.002433006    0.005293592    0.017455166
      3        6           0.005830992    0.007557949   -0.000524685
      4        1           0.000029041    0.000532539   -0.002208020
      5        1           0.000470273    0.001186352   -0.000411184
      6        1          -0.000275941    0.000964047   -0.000187393
      7       17          -0.036504775    0.055612991    0.016971583
      8        7           0.248559803    0.030467279   -0.035870518
      9        7          -0.106927374   -0.003188704    0.031985545
     10        7          -0.137421003   -0.021262346    0.013187107
     11       11           0.006683739    0.004171098    0.002428561
 -------------------------------------------------------------------
 Cartesian Forces:  Max     0.248559803 RMS     0.057768212
 Leave Link  716 at Tue Oct 27 18:22:36 2020, MaxMem=  4294967296 cpu:               0.3 elap:               0.0
 (Enter /n/sw/g16_nehalem/g16/l103.exe)

 GradGradGradGradGradGradGradGradGradGradGradGradGradGradGradGradGradGrad
 Berny optimization.
 Using GEDIIS/GDIIS optimizer.
 FormGI is forming the generalized inverse of G from B-inverse, IUseBI=4.
 Internal  Forces:  Max     0.139649626 RMS     0.032334650
 Search for a local minimum.
 Step number   2 out of a maximum of   49 on scan point     1 out of    51
 All quantities printed in internal units (Hartrees-Bohrs-Radians)
 RMS Force = .32733D-01 SwitMx=.10000D-02 MixMth= 1
 Mixed Optimization -- RFO/linear search
 Update second derivatives using D2CorX and points    1    2
 DE= -6.82D-02 DEPred=-5.82D-02 R= 1.17D+00
 TightC=F SS=  1.41D+00  RLast= 3.13D-01 DXNew= 5.0454D-01 9.4031D-01
 Trust test= 1.17D+00 RLast= 3.13D-01 DXMaxT set to 5.05D-01
 ITU=  1  0
 Use linear search instead of GDIIS.
     Eigenvalues ---    0.00230   0.01295   0.01316   0.03019   0.04102
     Eigenvalues ---    0.05365   0.05371   0.05941   0.06494   0.09738
     Eigenvalues ---    0.12977   0.15991   0.16000   0.16026   0.18528
     Eigenvalues ---    0.22009   0.22984   0.25005   0.26809   0.31284
     Eigenvalues ---    0.33932   0.34003   0.34282   0.54264   0.67633
     Eigenvalues ---    1.943951000.000001000.000001000.000001000.00000
     Eigenvalues --- 1000.000001000.000001000.000001000.000001000.00000
     Eigenvalues --- 1000.000001000.000001000.000001000.00000
 RFO step:  Lambda=-3.41854729D-02 EMin= 2.30000032D-03
 Quartic linear search produced a step of  1.50495.
 Maximum step size (   0.505) exceeded in Quadratic search.
    -- Step size scaled by   0.889
 Iteration  1 RMS(Cart)=  0.15542083 RMS(Int)=  0.08059231
 Iteration  2 RMS(Cart)=  0.11558811 RMS(Int)=  0.03797289
 Iteration  3 RMS(Cart)=  0.11159569 RMS(Int)=  0.00599182
 Iteration  4 RMS(Cart)=  0.01104328 RMS(Int)=  0.00039012
 Iteration  5 RMS(Cart)=  0.00005600 RMS(Int)=  0.00038889
 Iteration  6 RMS(Cart)=  0.00000000 RMS(Int)=  0.00038889
 Iteration  1 RMS(Cart)=  0.00000000 RMS(Int)=  0.00000000
 ITry= 1 IFail=0 DXMaxC= 1.05D+00 DCOld= 1.00D+10 DXMaxT= 5.05D-01 DXLimC= 3.00D+00 Rises=F
 Variable       Old X    -DE/DX   Delta X   Delta X   Delta X     New X
                                 (Linear)    (Quad)   (Total)
    R1        2.43197  -0.02157  -0.03055  -0.02534  -0.05590   2.37607
    R2        2.92561  -0.01031  -0.02923  -0.02113  -0.05035   2.87526
    R3        3.14975   0.06832   0.18990   0.00266   0.19256   3.34230
    R4        3.36023   0.00783   0.00000   0.00000   0.00000   3.36023
    R5        3.89820   0.00448   0.00808   0.03831   0.04638   3.94458
    R6        2.06846  -0.00193  -0.00730   0.00070  -0.00660   2.06186
    R7        2.07063  -0.00086  -0.00611   0.00486  -0.00125   2.06937
    R8        2.06811  -0.00082  -0.00086  -0.00324  -0.00410   2.06400
    R9        2.13928   0.11227   0.11392   0.00561   0.11953   2.25882
   R10        2.44002  -0.13965  -0.30942  -0.16100  -0.47042   1.96959
    A1        2.01705   0.01127   0.03068   0.03123   0.06093   2.07798
    A2        2.02534  -0.00127   0.00943  -0.02754  -0.01956   2.00578
    A3        1.84664  -0.01044  -0.06294   0.03899  -0.02464   1.82200
    A4        1.94935  -0.00012   0.03786  -0.06963  -0.03256   1.91679
    A5        1.76540  -0.00165  -0.02369   0.03854   0.01510   1.78050
    A6        1.82467  -0.00031  -0.00812   0.00693  -0.00109   1.82358
    A7        2.05573  -0.02371  -0.05819  -0.07254  -0.13073   1.92500
    A8        1.96851  -0.00148  -0.00822   0.00163  -0.00665   1.96187
    A9        1.87070  -0.00103  -0.01313   0.01900   0.00587   1.87657
   A10        1.90600  -0.00032   0.00693  -0.01975  -0.01284   1.89317
   A11        1.90903   0.00109   0.00823  -0.00469   0.00350   1.91253
   A12        1.90950   0.00089   0.00170   0.00394   0.00557   1.91508
   A13        1.89870   0.00090   0.00474   0.00002   0.00480   1.90350
   A14        3.08351  -0.00718  -0.08741   0.21974   0.13233   3.21584
   A15        2.81848  -0.04669  -0.19389  -0.40140  -0.59529   2.22319
   A16        3.14269  -0.00033   0.00165  -0.02534  -0.02369   3.11900
   A17        3.19822   0.00422   0.02542   0.00642   0.03184   3.23007
    D1       -1.66920   0.00078   0.02957  -0.09076  -0.06081  -1.73001
    D2        2.28197  -0.01035  -0.07111   0.01521  -0.05558   2.22639
    D3        0.26796  -0.00221  -0.02283  -0.00469  -0.02821   0.23975
    D4        3.01094  -0.00614  -0.05142   0.05113  -0.00035   3.01058
    D5       -1.17017  -0.00638  -0.05508   0.05900   0.00387  -1.16630
    D6        0.88391  -0.00606  -0.05303   0.05907   0.00594   0.88985
    D7       -0.90611   0.00369   0.03121  -0.03389  -0.00226  -0.90837
    D8        1.19596   0.00345   0.02754  -0.02603   0.00196   1.19792
    D9       -3.03314   0.00377   0.02960  -0.02595   0.00403  -3.02910
   D10        1.02640   0.00247   0.02429  -0.03192  -0.00797   1.01843
   D11        3.12848   0.00223   0.02063  -0.02405  -0.00375   3.12473
   D12       -1.10062   0.00255   0.02268  -0.02398  -0.00168  -1.10230
         Item               Value     Threshold  Converged?
 Maximum Force            0.139650     0.000450     NO 
 RMS     Force            0.032733     0.000300     NO 
 Maximum Displacement     1.052874     0.001800     NO 
 RMS     Displacement     0.366357     0.001200     NO 
 Predicted change in Energy=-9.483039D-02
 Lowest energy point so far.  Saving SCF results.
 GradGradGradGradGradGradGradGradGradGradGradGradGradGradGradGradGradGrad

 Leave Link  103 at Tue Oct 27 18:22:36 2020, MaxMem=  4294967296 cpu:               1.8 elap:               0.1
 (Enter /n/sw/g16_nehalem/g16/l202.exe)
                          Input orientation:                          
 ---------------------------------------------------------------------
 Center     Atomic      Atomic             Coordinates (Angstroms)
 Number     Number       Type             X           Y           Z
 ---------------------------------------------------------------------
      1          6           0       -0.156398   -0.312004   -0.153382
      2          8           0        0.028704   -0.570547   -1.369876
      3          6           0       -0.341110   -1.461148    0.826605
      4          1           0       -0.362445   -1.123714    1.863987
      5          1           0       -1.287596   -1.954413    0.581611
      6          1           0        0.477546   -2.170447    0.686425
      7         17           0       -1.355708    0.947914    0.166706
      8          7           0        2.437954    0.342370   -0.173327
      9          7           0        1.383900    0.392321    0.388144
     10          7           0        3.384305    0.353238   -0.609924
     11         11           0        2.061799   -0.465814   -1.831095
 ---------------------------------------------------------------------
                    Distance matrix (angstroms):
                    1          2          3          4          5
     1  C    0.000000
     2  O    1.257364   0.000000
     3  C    1.521521   2.398846   0.000000
     4  H    2.184286   3.304067   1.091090   0.000000
     5  H    2.125401   2.730573   1.095065   1.786184   0.000000
     6  H    2.135643   2.643769   1.092224   1.785466   1.781399
     7  Cl   1.768670   2.565814   2.696007   2.856392   2.932624
     8  N    2.675680   2.840710   3.460598   3.760622   4.441268
     9  N    1.778157   2.419567   2.569680   2.743390   3.561106
    10  N    3.631467   3.562438   4.385696   4.726495   5.345247
    11  Na   2.785458   2.087383   3.718606   4.468044   4.388112
                    6          7          8          9         10
     6  H    0.000000
     7  Cl   3.654463   0.000000
     8  N    3.301003   3.856705   0.000000
     9  N    2.734635   2.804135   1.195313   0.000000
    10  N    4.061866   4.839888   1.042265   2.235909   0.000000
    11  Na   3.428343   4.203473   1.882246   2.474058   1.977656
                   11
    11  Na   0.000000
 Stoichiometry    C2H3ClN3NaO
 Framework group  C1[X(C2H3ClN3NaO)]
 Deg. of freedom    27
 Full point group                 C1      NOp   1
 RotChk:  IX=0 Diff= 7.21D-01
 Largest Abelian subgroup         C1      NOp   1
 Largest concise Abelian subgroup C1      NOp   1
                         Standard orientation:                         
 ---------------------------------------------------------------------
 Center     Atomic      Atomic             Coordinates (Angstroms)
 Number     Number       Type             X           Y           Z
 ---------------------------------------------------------------------
      1          6           0        0.794773    0.334471    0.076936
      2          8           0        0.229572    1.015546   -0.816176
      3          6           0        1.202457    1.012615    1.376528
      4          1           0        1.561811    0.301390    2.121848
      5          1           0        1.996441    1.728646    1.139762
      6          1           0        0.339338    1.554195    1.769810
      7         17           0        2.107730   -0.702969   -0.495825
      8          7           0       -1.635955   -0.726509    0.430695
      9          7           0       -0.459350   -0.799031    0.628471
     10          7           0       -2.668245   -0.738280    0.287326
     11         11           0       -1.836737    0.727827   -0.747202
 ---------------------------------------------------------------------
 Rotational constants (GHZ):           3.1261309           1.0605901           1.0182805
 Leave Link  202 at Tue Oct 27 18:22:36 2020, MaxMem=  4294967296 cpu:               0.0 elap:               0.0
 (Enter /n/sw/g16_nehalem/g16/l301.exe)
 Standard basis: 6-31G(d) (6D, 7F)
 Ernie: Thresh=  0.10000D-02 Tol=  0.10000D-05 Strict=F.
 There are   134 symmetry adapted cartesian basis functions of A   symmetry.
 There are   134 symmetry adapted basis functions of A   symmetry.
   134 basis functions,   284 primitive gaussians,   134 cartesian basis functions
    36 alpha electrons       36 beta electrons
       nuclear repulsion energy       476.9811766198 Hartrees.
 IExCor=  402 DFT=T Ex+Corr=B3LYP ExCW=0 ScaHFX=  0.200000
 ScaDFX=  0.800000  0.720000  1.000000  0.810000 ScalE2=  1.000000  1.000000
 IRadAn=      5 IRanWt=     -1 IRanGd=            0 ICorTp=0 IEmpDi=141
 NAtoms=   11 NActive=   11 NUniq=   11 SFac= 1.00D+00 NAtFMM=   60 NAOKFM=F Big=F
 Integral buffers will be    131072 words long.
 Raffenetti 2 integral format.
 Two-electron integral symmetry is turned on.
 R6Disp:  Grimme-D3(BJ) Dispersion energy=       -0.0201708690 Hartrees.
 Nuclear repulsion after empirical dispersion term =      476.9610057507 Hartrees.
 Leave Link  301 at Tue Oct 27 18:22:36 2020, MaxMem=  4294967296 cpu:               0.8 elap:               0.1
 (Enter /n/sw/g16_nehalem/g16/l302.exe)
 NPDir=0 NMtPBC=     1 NCelOv=     1 NCel=       1 NClECP=     1 NCelD=      1
         NCelK=      1 NCelE2=     1 NClLst=     1 CellRange=     0.0.
 One-electron integrals computed using PRISM.
 One-electron integral symmetry used in STVInt
 NBasis=   134 RedAO= T EigKep=  7.97D-04  NBF=   134
 NBsUse=   134 1.00D-06 EigRej= -1.00D+00 NBFU=   134
 Precomputing XC quadrature grid using
 IXCGrd= 4 IRadAn=           5 IRanWt=          -1 IRanGd=           0 AccXCQ= 0.00D+00.
 Generated NRdTot=       0 NPtTot=           0 NUsed=           0 NTot=          32
 NSgBfM=   133   133   133   133   133 MxSgAt=    11 MxSgA2=    11.
 Leave Link  302 at Tue Oct 27 18:22:36 2020, MaxMem=  4294967296 cpu:               2.8 elap:               0.2
 (Enter /n/sw/g16_nehalem/g16/l303.exe)
 DipDrv:  MaxL=1.
 Leave Link  303 at Tue Oct 27 18:22:36 2020, MaxMem=  4294967296 cpu:               0.3 elap:               0.0
 (Enter /n/sw/g16_nehalem/g16/l401.exe)
 Initial guess from the checkpoint file:  "/scratch/Gau-216769.chk"
 B after Tr=     0.000000    0.000000    0.000000
         Rot=    0.965780    0.252866   -0.014983   -0.055711 Ang=  30.06 deg.
 Guess basis will be translated and rotated to current coordinates.
 JPrj=2 DoOrth=T DoCkMO=T.
 Generating alternative initial guess.
 ExpMin= 2.60D-02 ExpMax= 2.52D+04 ExpMxC= 3.78D+03 IAcc=3 IRadAn=         5 AccDes= 0.00D+00
 Harris functional with IExCor=  402 and IRadAn=       5 diagonalized for initial guess.
 HarFok:  IExCor=  402 AccDes= 0.00D+00 IRadAn=         5 IDoV= 1 UseB2=F ITyADJ=14
 ICtDFT=  3500011 ScaDFX=  1.000000  1.000000  1.000000  1.000000
 FoFCou: FMM=F IPFlag=           0 FMFlag=      100000 FMFlg1=           0
         NFxFlg=           0 DoJE=T BraDBF=F KetDBF=T FulRan=T
         wScrn=  0.000000 ICntrl=       500 IOpCl=  0 I1Cent=   200000004 NGrid=           0
         NMat0=    1 NMatS0=      1 NMatT0=    0 NMatD0=    1 NMtDS0=    0 NMtDT0=    0
 Petite list used in FoFCou.
 Harris En= -939.838144613101    
 Leave Link  401 at Tue Oct 27 18:22:37 2020, MaxMem=  4294967296 cpu:               5.8 elap:               0.4
 (Enter /n/sw/g16_nehalem/g16/l502.exe)
 Keep R1 ints in memory in canonical form, NReq=56246956.
 FoFCou: FMM=F IPFlag=           0 FMFlag=           0 FMFlg1=           0
         NFxFlg=           0 DoJE=F BraDBF=F KetDBF=F FulRan=T
         wScrn=  0.000000 ICntrl=       600 IOpCl=  0 I1Cent=           0 NGrid=           0
         NMat0=    1 NMatS0=   9045 NMatT0=    0 NMatD0=    1 NMtDS0=    0 NMtDT0=    0
 Symmetry not used in FoFCou.
 Two-electron integral symmetry not used.
 Closed shell SCF:
 Using DIIS extrapolation, IDIIS=  1040.
 NGot=  4294967296 LenX=  4254017214 LenY=  4253998817
 Requested convergence on RMS density matrix=1.00D-08 within 128 cycles.
 Requested convergence on MAX density matrix=1.00D-06.
 Requested convergence on             energy=1.00D-06.
 No special actions if energy rises.

 Cycle   1  Pass 1  IDiag  1:
 E= -939.478902787662    
 DIIS: error= 3.86D-02 at cycle   1 NSaved=   1.
 NSaved= 1 IEnMin= 1 EnMin= -939.478902787662     IErMin= 1 ErrMin= 3.86D-02
 ErrMax= 3.86D-02  0.00D+00 EMaxC= 1.00D-01 BMatC= 2.76D-01 BMatP= 2.76D-01
 IDIUse=3 WtCom= 6.14D-01 WtEn= 3.86D-01
[...]
 Coeff:      0.127D+00 0.366D+00 0.491D+00
 Gap=     0.149 Goal=   None    Shift=    0.000
 RMSDP=2.81D-08 MaxDP=9.96D-07 DE=-9.32D-11 OVMax= 1.20D-06

 Cycle  10  Pass 1  IDiag  1:
 E= -940.033166640692     Delta-E=       -0.000000000019 Rises=F Damp=F
 DIIS: error= 7.22D-08 at cycle  10 NSaved=  10.
 NSaved=10 IEnMin=10 EnMin= -940.033166640692     IErMin=10 ErrMin= 7.22D-08
 ErrMax= 7.22D-08  0.00D+00 EMaxC= 1.00D-01 BMatC= 1.49D-12 BMatP= 2.14D-11
 IDIUse=1 WtCom= 1.00D+00 WtEn= 0.00D+00
 Coeff-Com:  0.459D-04-0.621D-03 0.122D-04-0.973D-03-0.144D-02 0.143D-02
 Coeff-Com:  0.176D-01 0.834D-01 0.240D+00 0.660D+00
 Coeff:      0.459D-04-0.621D-03 0.122D-04-0.973D-03-0.144D-02 0.143D-02
 Coeff:      0.176D-01 0.834D-01 0.240D+00 0.660D+00
 Gap=     0.149 Goal=   None    Shift=    0.000
 RMSDP=9.30D-09 MaxDP=1.81D-07 DE=-1.91D-11 OVMax= 4.07D-07

 SCF Done:  E(RB3LYP) =  -940.033166641     A.U. after   10 cycles
            NFock= 10  Conv=0.93D-08     -V/T= 2.0056
 KE= 9.347621611200D+02 PE=-3.107688684017D+03 EE= 7.917084500359D+02
 Leave Link  502 at Tue Oct 27 18:32:17 2020, MaxMem=  4294967296 cpu:              48.6 elap:               3.6
 (Enter /n/sw/g16_nehalem/g16/l701.exe)
 ... and contract with generalized density number  0.
 Compute integral first derivatives.
 R6Disp: Adding Grimme-D3(BJ) dispersion energy 1st derivatives to the gradient.
 Leave Link  701 at Tue Oct 27 18:32:18 2020, MaxMem=  4294967296 cpu:               3.0 elap:               0.2
 (Enter /n/sw/g16_nehalem/g16/l702.exe)
 L702 exits ... SP integral derivatives will be done elsewhere.
 Leave Link  702 at Tue Oct 27 18:32:18 2020, MaxMem=  4294967296 cpu:               0.3 elap:               0.0
 (Enter /n/sw/g16_nehalem/g16/l703.exe)
 Integral derivatives from FoFJK, PRISM(SPDF).
 Compute integral first derivatives, UseDBF=F ICtDFT=           0.
 Calling FoFJK, ICntrl=      2127 FMM=F ISym2X=0 I1Cent= 0 IOpClX= 0 NMat=1 NMatS=1 NMatT=0.
 FoFJK:  IHMeth= 1 ICntrl=    2127 DoSepK=F KAlg= 0 I1Cent=           0 FoldK=F
 IRaf=         0 NMat=       1 IRICut=       1 DoRegI=T DoRafI=F ISym2E= 0 IDoP0=0 IntGTp=1.
 FoFCou: FMM=F IPFlag=           0 FMFlag=      100000 FMFlg1=         800
         NFxFlg=           0 DoJE=F BraDBF=F KetDBF=F FulRan=T
         wScrn=  0.000000 ICntrl=      2127 IOpCl=  0 I1Cent=           0 NGrid=           0
         NMat0=    1 NMatS0=      1 NMatT0=    0 NMatD0=    1 NMtDS0=    0 NMtDT0=    0
 Symmetry not used in FoFCou.
 Leave Link  703 at Tue Oct 27 18:32:19 2020, MaxMem=  4294967296 cpu:              13.6 elap:               0.9
 (Enter /n/sw/g16_nehalem/g16/l716.exe)
 Dipole        =-1.25094091D+00 5.48015453D-01 1.97653588D+00
 ***** Axes restored to original set *****
 -------------------------------------------------------------------
 Center     Atomic                   Forces (Hartrees/Bohr)
 Number     Number              X              Y              Z
 -------------------------------------------------------------------
      1        6           0.032438620    0.020525095    0.023221774
      2        8           0.000018417   -0.000011675    0.000028539
      3        6           0.000008499    0.000003680    0.000009201
      4        1          -0.000000372    0.000000784   -0.000001058
      5        1           0.000002731    0.000000485    0.000001618
      6        1          -0.000000043    0.000004138    0.000003108
      7       17           0.000035832   -0.000021307   -0.000044554
      8        7          -0.000028075   -0.000013051    0.000018243
      9        7          -0.032439586   -0.020518341   -0.023256107
     10        7           0.000017845   -0.000001727    0.000008769
     11       11          -0.000053869    0.000031919    0.000010467
 -------------------------------------------------------------------
 Cartesian Forces:  Max     0.032439586 RMS     0.011046706
 Leave Link  716 at Tue Oct 27 18:32:19 2020, MaxMem=  4294967296 cpu:               0.3 elap:               0.0
 (Enter /n/sw/g16_nehalem/g16/l103.exe)

 GradGradGradGradGradGradGradGradGradGradGradGradGradGradGradGradGradGrad
 Berny optimization.
 Using GEDIIS/GDIIS optimizer.
 FormGI is forming the generalized inverse of G from B-inverse, IUseBI=4.
 Internal  Forces:  Max     0.044878358 RMS     0.007186440
 Search for a local minimum.
 Step number   2 out of a maximum of   49 on scan point    14 out of    51
 All quantities printed in internal units (Hartrees-Bohrs-Radians)
 RMS Force = .47264D-04 SwitMx=.10000D-02 MixMth= 2
 Mixed Optimization -- En-DIIS/RFO-DIIS
 Update second derivatives using D2CorX and points    1    2
 DE= -1.68D-05 DEPred=-1.61D-05 R= 1.04D+00
 TightC=F SS=  1.41D+00  RLast= 3.28D-02 DXNew= 4.1112D-01 9.8541D-02
 Trust test= 1.04D+00 RLast= 3.28D-02 DXMaxT set to 2.44D-01
 ITU=  1  0
 Use linear search instead of GDIIS.
     Eigenvalues ---    0.00088   0.00669   0.00911   0.01724   0.02506
     Eigenvalues ---    0.03606   0.05118   0.06113   0.06254   0.07221
     Eigenvalues ---    0.11512   0.14852   0.15157   0.15971   0.16707
     Eigenvalues ---    0.19700   0.22202   0.29092   0.32973   0.33962
     Eigenvalues ---    0.34205   0.34616   0.79885   0.89059   1.57433
     Eigenvalues ---    2.058561000.000001000.000001000.000001000.00000
     Eigenvalues --- 1000.000001000.000001000.000001000.000001000.00000
     Eigenvalues --- 1000.000001000.000001000.000001000.00000
 RFO step:  Lambda=-2.05439571D-07 EMin= 8.82449582D-04
 Quartic linear search produced a step of  0.03917.
 Iteration  1 RMS(Cart)=  0.00101634 RMS(Int)=  0.00000059
 Iteration  2 RMS(Cart)=  0.00000059 RMS(Int)=  0.00000004
 Iteration  1 RMS(Cart)=  0.00000000 RMS(Int)=  0.00000000
 ITry= 1 IFail=0 DXMaxC= 4.72D-03 DCOld= 1.00D+10 DXMaxT= 2.44D-01 DXLimC= 3.00D+00 Rises=F
 Variable       Old X    -DE/DX   Delta X   Delta X   Delta X     New X
                                 (Linear)    (Quad)   (Total)
    R1        2.26811  -0.00004   0.00009  -0.00005   0.00004   2.26815
    R2        2.79710   0.00000   0.00003  -0.00002   0.00001   2.79711
    R3        6.11336  -0.00003   0.00041   0.00043   0.00084   6.11420
    R4        3.11457  -0.04488   0.00000   0.00000   0.00000   3.11457
    R5        4.44262   0.00003  -0.00073   0.00077   0.00004   4.44266
    R6        2.07668   0.00000   0.00000  -0.00001  -0.00001   2.07667
    R7        2.06301   0.00000   0.00000   0.00001   0.00000   2.06301
    R8        2.06164   0.00000   0.00000   0.00000   0.00000   2.06165
    R9        2.32539  -0.00003   0.00007  -0.00001   0.00006   2.32545
   R10        2.15940   0.00000  -0.00005   0.00000  -0.00005   2.15935
    A1        2.28529  -0.00001  -0.00021   0.00020  -0.00001   2.28528
    A2        1.51116  -0.00012  -0.00003  -0.00004  -0.00008   1.51108
    A3        2.08778   0.00005   0.00010  -0.00005   0.00006   2.08784
    A4        1.60651   0.00012   0.00005  -0.00008  -0.00003   1.60648
    A5        1.90997  -0.00004   0.00011  -0.00015  -0.00005   1.90993
    A6        1.58673   0.00000  -0.00006   0.00029   0.00023   1.58696
    A7        1.97706  -0.00014   0.00023   0.00017   0.00040   1.97747
    A8        1.83052   0.00000   0.00001   0.00004   0.00005   1.83057
    A9        1.91981   0.00000   0.00001   0.00000   0.00001   1.91982
   A10        1.93697   0.00000   0.00002  -0.00005  -0.00002   1.93695
   A11        1.91168   0.00000  -0.00001   0.00001  -0.00001   1.91167
   A12        1.90491   0.00000  -0.00002   0.00001  -0.00001   1.90489
   A13        1.95567   0.00000  -0.00001  -0.00001  -0.00002   1.95566
   A14        3.11884   0.00004   0.00014   0.00027   0.00041   3.11925
   A15        1.96546   0.00007   0.00017   0.00004   0.00020   1.96566
   A16        3.13991   0.00000  -0.00009   0.00001  -0.00008   3.13983
   A17        3.68420   0.00000  -0.00014   0.00023   0.00009   3.68429
    D1        1.95688  -0.00005  -0.00042  -0.00103  -0.00145   1.95544
    D2        0.39053  -0.00011  -0.00047  -0.00087  -0.00134   0.38919
    D3       -1.16468  -0.00004  -0.00037  -0.00119  -0.00156  -1.16624
    D4       -1.67945   0.00002   0.00016  -0.00022  -0.00006  -1.67951
    D5        0.37477   0.00002   0.00016  -0.00019  -0.00003   0.37474
    D6        2.54897   0.00002   0.00017  -0.00023  -0.00006   2.54891
    D7       -0.15663  -0.00003   0.00016  -0.00035  -0.00019  -0.15682
    D8        1.89759  -0.00003   0.00016  -0.00032  -0.00016   1.89743
    D9       -2.21140  -0.00003   0.00017  -0.00036  -0.00019  -2.21159
   D10        1.44368   0.00001   0.00012  -0.00008   0.00004   1.44372
   D11       -2.78528   0.00001   0.00012  -0.00005   0.00007  -2.78521
   D12       -0.61108   0.00001   0.00012  -0.00008   0.00004  -0.61104
         Item               Value     Threshold  Converged?
 Maximum Force            0.000137     0.000450     YES
 RMS     Force            0.000047     0.000300     YES
 Maximum Displacement     0.004722     0.001800     NO 
 RMS     Displacement     0.001017     0.001200     YES
 Predicted change in Energy=-1.278191D-07
 Lowest energy point so far.  Saving SCF results.
 GradGradGradGradGradGradGradGradGradGradGradGradGradGradGradGradGradGrad

 Leave Link  103 at Tue Oct 27 18:32:19 2020, MaxMem=  4294967296 cpu:               1.0 elap:               0.1
 (Enter /n/sw/g16_nehalem/g16/l202.exe)
                          Input orientation:                          
 ---------------------------------------------------------------------
 Center     Atomic      Atomic             Coordinates (Angstroms)
 Number     Number       Type             X           Y           Z
 ---------------------------------------------------------------------
      1          6           0        0.645755   -1.167008    0.004683
      2          8           0        0.753381   -1.287674   -1.184628
      3          6           0       -0.438401   -1.573857    0.926623
      4          1           0       -1.053792   -0.672348    1.053975
      5          1           0       -1.038542   -2.364132    0.471536
      6          1           0       -0.035688   -1.871950    1.895741
      7         17           0       -0.782170    1.671102   -0.607356
      8          7           0        2.539792    0.174377    0.036533
      9          7           0        1.837513   -0.413694    0.858294
     10          7           0        3.171296    0.723743   -0.741359
     11         11           0        0.671808    0.759200   -2.338166
 ---------------------------------------------------------------------
                    Distance matrix (angstroms):
                    1          2          3          4          5
     1  C    0.000000
     2  O    1.200251   0.000000
     3  C    1.480167   2.441234   0.000000
     4  H    2.057708   2.942081   1.098928   0.000000
     5  H    2.118470   2.666952   1.091700   1.789302   0.000000
     6  H    2.130120   3.233061   1.090976   1.784419   1.810061
     7  Cl   3.235495   3.383122   3.605694   2.885404   4.184836
     8  N    2.321143   2.611530   3.566261   3.829619   4.408825
     9  N    1.648157   2.472390   2.555471   2.909439   3.496496
    10  N    3.241893   3.176255   4.592498   4.798298   5.359927
    11  Na   3.033133   2.350956   4.163480   4.066159   4.535960
                    6          7          8          9         10
     6  H    0.000000
     7  Cl   4.401812   0.000000
     8  N    3.778520   3.700029   0.000000
     9  N    2.590693   3.654757   1.230575   0.000000
    10  N    4.896598   4.067597   1.142679   2.373105   0.000000
    11  Na   5.034826   2.437483   3.077430   3.598876   2.966225
                   11
    11  Na   0.000000
 Stoichiometry    C2H3ClN3NaO
 Framework group  C1[X(C2H3ClN3NaO)]
 Deg. of freedom    27
 Full point group                 C1      NOp   1
 RotChk:  IX=3 Diff= 2.29D-03
 Largest Abelian subgroup         C1      NOp   1
 Largest concise Abelian subgroup C1      NOp   1
                         Standard orientation:                         
 ---------------------------------------------------------------------
 Center     Atomic      Atomic             Coordinates (Angstroms)
 Number     Number       Type             X           Y           Z
 ---------------------------------------------------------------------
      1          6           0       -1.024083   -0.837649    0.392103
      2          8           0       -0.655986   -0.288425    1.393832
      3          6           0       -1.035011   -2.270093    0.019439
      4          1           0       -0.115328   -2.417038   -0.563854
      5          1           0       -1.000517   -2.889786    0.917547
      6          1           0       -1.897098   -2.504189   -0.606846
      7         17           0        1.999474   -0.458505   -0.695455
      8          7           0       -1.294405    1.225842   -0.635825
      9          7           0       -1.614819    0.058759   -0.858459
     10          7           0       -0.975748    2.301209   -0.417285
     11         11           0        1.256287    1.041706    1.076088
 ---------------------------------------------------------------------
 Rotational constants (GHZ):           1.6054997           1.3181179           0.9999926
 Leave Link  202 at Tue Oct 27 18:32:19 2020, MaxMem=  4294967296 cpu:               0.1 elap:               0.0
 (Enter /n/sw/g16_nehalem/g16/l301.exe)
 Standard basis: 6-31G(d) (6D, 7F)
 Ernie: Thresh=  0.10000D-02 Tol=  0.10000D-05 Strict=F.
 There are   134 symmetry adapted cartesian basis functions of A   symmetry.
 There are   134 symmetry adapted basis functions of A   symmetry.
   134 basis functions,   284 primitive gaussians,   134 cartesian basis functions
    36 alpha electrons       36 beta electrons
       nuclear repulsion energy       441.1520280086 Hartrees.
 IExCor=  402 DFT=T Ex+Corr=B3LYP ExCW=0 ScaHFX=  0.200000
 ScaDFX=  0.800000  0.720000  1.000000  0.810000 ScalE2=  1.000000  1.000000
 IRadAn=      5 IRanWt=     -1 IRanGd=            0 ICorTp=0 IEmpDi=141
 NAtoms=   11 NActive=   11 NUniq=   11 SFac= 1.00D+00 NAtFMM=   60 NAOKFM=F Big=F
 Integral buffers will be    131072 words long.
 Raffenetti 2 integral format.
 Two-electron integral symmetry is turned on.
 R6Disp:  Grimme-D3(BJ) Dispersion energy=       -0.0202568796 Hartrees.
 Nuclear repulsion after empirical dispersion term =      441.1317711289 Hartrees.
 Leave Link  301 at Tue Oct 27 18:32:19 2020, MaxMem=  4294967296 cpu:               1.1 elap:               0.1
 (Enter /n/sw/g16_nehalem/g16/l302.exe)
 NPDir=0 NMtPBC=     1 NCelOv=     1 NCel=       1 NClECP=     1 NCelD=      1
         NCelK=      1 NCelE2=     1 NClLst=     1 CellRange=     0.0.
 One-electron integrals computed using PRISM.
 One-electron integral symmetry used in STVInt
 NBasis=   134 RedAO= T EigKep=  1.37D-03  NBF=   134
 NBsUse=   134 1.00D-06 EigRej= -1.00D+00 NBFU=   134
 Precomputing XC quadrature grid using
 IXCGrd= 4 IRadAn=           5 IRanWt=          -1 IRanGd=           0 AccXCQ= 0.00D+00.
 Generated NRdTot=       0 NPtTot=           0 NUsed=           0 NTot=          32
 NSgBfM=   133   133   133   133   133 MxSgAt=    11 MxSgA2=    11.
 Leave Link  302 at Tue Oct 27 18:32:19 2020, MaxMem=  4294967296 cpu:               2.3 elap:               0.2
 (Enter /n/sw/g16_nehalem/g16/l303.exe)
 DipDrv:  MaxL=1.
 Leave Link  303 at Tue Oct 27 18:32:19 2020, MaxMem=  4294967296 cpu:               0.4 elap:               0.0
 (Enter /n/sw/g16_nehalem/g16/l401.exe)
 Initial guess from the checkpoint file:  "/scratch/Gau-216769.chk"
 B after Tr=     0.000000    0.000000    0.000000
         Rot=    1.000000   -0.000226   -0.000252   -0.000724 Ang=  -0.09 deg.
 Guess basis will be translated and rotated to current coordinates.
 JPrj=2 DoOrth=T DoCkMO=T.
 Leave Link  401 at Tue Oct 27 18:32:19 2020, MaxMem=  4294967296 cpu:               2.2 elap:               0.1
 (Enter /n/sw/g16_nehalem/g16/l502.exe)
 Keep R1 ints in memory in canonical form, NReq=56246956.
 FoFCou: FMM=F IPFlag=           0 FMFlag=           0 FMFlg1=           0
         NFxFlg=           0 DoJE=F BraDBF=F KetDBF=F FulRan=T
         wScrn=  0.000000 ICntrl=       600 IOpCl=  0 I1Cent=           0 NGrid=           0
         NMat0=    1 NMatS0=   9045 NMatT0=    0 NMatD0=    1 NMtDS0=    0 NMtDT0=    0
 Symmetry not used in FoFCou.
 Two-electron integral symmetry not used.
 Closed shell SCF:
 Using DIIS extrapolation, IDIIS=  1040.
 NGot=  4294967296 LenX=  4254017214 LenY=  4253998817
 Requested convergence on RMS density matrix=1.00D-08 within 128 cycles.
 Requested convergence on MAX density matrix=1.00D-06.
 Requested convergence on             energy=1.00D-06.
 No special actions if energy rises.

 Cycle   1  Pass 1  IDiag  1:
 E= -940.033165823617    
 DIIS: error= 6.03D-05 at cycle   1 NSaved=   1.
 NSaved= 1 IEnMin= 1 EnMin= -940.033165823617     IErMin= 1 ErrMin= 6.03D-05
 ErrMax= 6.03D-05  0.00D+00 EMaxC= 1.00D-01 BMatC= 5.49D-07 BMatP= 5.49D-07
 IDIUse=1 WtCom= 1.00D+00 WtEn= 0.00D+00
 Coeff-Com:  0.100D+01
 Coeff:      0.100D+01
 Gap=     0.883 Goal=   None    Shift=    0.000
 RMSDP=1.13D-05 MaxDP=1.88D-04              OVMax= 3.13D-04

 Cycle   2  Pass 1  IDiag  1:
 E= -940.033166675994     Delta-E=       -0.000000852377 Rises=F Damp=F
 DIIS: error= 1.88D-05 at cycle   2 NSaved=   2.
 NSaved= 2 IEnMin= 2 EnMin= -940.033166675994     IErMin= 2 ErrMin= 1.88D-05
 ErrMax= 1.88D-05  0.00D+00 EMaxC= 1.00D-01 BMatC= 1.00D-07 BMatP= 5.49D-07
 IDIUse=1 WtCom= 1.00D+00 WtEn= 0.00D+00
 Coeff-Com:  0.136D+00 0.864D+00
 Coeff:      0.136D+00 0.864D+00
 Gap=     0.149 Goal=   None    Shift=    0.000
 RMSDP=6.33D-06 MaxDP=2.06D-04 DE=-8.52D-07 OVMax= 4.25D-04

 Cycle   3  Pass 1  IDiag  1:
 E= -940.033166223714     Delta-E=        0.000000452279 Rises=F Damp=F
 DIIS: error= 5.06D-05 at cycle   3 NSaved=   3.
 NSaved= 3 IEnMin= 2 EnMin= -940.033166675994     IErMin= 2 ErrMin= 1.88D-05
 ErrMax= 5.06D-05  0.00D+00 EMaxC= 1.00D-01 BMatC= 5.98D-07 BMatP= 1.00D-07
 IDIUse=1 WtCom= 1.00D+00 WtEn= 0.00D+00
 Coeff-Com: -0.376D-01 0.743D+00 0.294D+00
 Coeff:     -0.376D-01 0.743D+00 0.294D+00
 Gap=     0.149 Goal=   None    Shift=    0.000
 RMSDP=4.49D-06 MaxDP=1.52D-04 DE= 4.52D-07 OVMax= 3.09D-04

 Cycle   4  Pass 1  IDiag  1:
 E= -940.033166767783     Delta-E=       -0.000000544069 Rises=F Damp=F
 DIIS: error= 5.22D-06 at cycle   4 NSaved=   4.
 NSaved= 4 IEnMin= 4 EnMin= -940.033166767783     IErMin= 4 ErrMin= 5.22D-06
 ErrMax= 5.22D-06  0.00D+00 EMaxC= 1.00D-01 BMatC= 1.15D-08 BMatP= 1.00D-07
 IDIUse=1 WtCom= 1.00D+00 WtEn= 0.00D+00
 Coeff-Com: -0.293D-01 0.388D+00 0.173D+00 0.469D+00
 Coeff:     -0.293D-01 0.388D+00 0.173D+00 0.469D+00
 Gap=     0.149 Goal=   None    Shift=    0.000
 RMSDP=9.01D-07 MaxDP=2.27D-05 DE=-5.44D-07 OVMax= 3.94D-05

 Cycle   5  Pass 1  IDiag  1:
 E= -940.033166776701     Delta-E=       -0.000000008918 Rises=F Damp=F
 DIIS: error= 2.39D-06 at cycle   5 NSaved=   5.
 NSaved= 5 IEnMin= 5 EnMin= -940.033166776701     IErMin= 5 ErrMin= 2.39D-06
 ErrMax= 2.39D-06  0.00D+00 EMaxC= 1.00D-01 BMatC= 1.66D-09 BMatP= 1.15D-08
 IDIUse=1 WtCom= 1.00D+00 WtEn= 0.00D+00
 Coeff-Com: -0.126D-01 0.147D+00 0.698D-01 0.298D+00 0.497D+00
 Coeff:     -0.126D-01 0.147D+00 0.698D-01 0.298D+00 0.497D+00
 Gap=     0.149 Goal=   None    Shift=    0.000
 RMSDP=2.70D-07 MaxDP=1.01D-05 DE=-8.92D-09 OVMax= 1.22D-05

 Cycle   6  Pass 1  IDiag  1:
 E= -940.033166777976     Delta-E=       -0.000000001275 Rises=F Damp=F
 DIIS: error= 5.72D-07 at cycle   6 NSaved=   6.
 NSaved= 6 IEnMin= 6 EnMin= -940.033166777976     IErMin= 6 ErrMin= 5.72D-07
 ErrMax= 5.72D-07  0.00D+00 EMaxC= 1.00D-01 BMatC= 1.24D-10 BMatP= 1.66D-09
 IDIUse=1 WtCom= 1.00D+00 WtEn= 0.00D+00
 Coeff-Com: -0.491D-02 0.535D-01 0.263D-01 0.138D+00 0.296D+00 0.491D+00
 Coeff:     -0.491D-02 0.535D-01 0.263D-01 0.138D+00 0.296D+00 0.491D+00
 Gap=     0.149 Goal=   None    Shift=    0.000
 RMSDP=7.67D-08 MaxDP=2.09D-06 DE=-1.28D-09 OVMax= 2.98D-06

 Cycle   7  Pass 1  IDiag  1:
