 Entering Gaussian System, Link 0=g16
 Input=elimination-TS_OTf-cat-c1.gjf
 Output=elimination-TS_OTf-cat-c1.out
 Initial command:
 /n/sw/g16_nehalem/g16/l1.exe "/scratch/cwagen_elimination-TS_OTf-cat-c1/Gau-227639.inp" -scrdir="/scratch/cwagen_elimination-TS_OTf-cat-c1/"
 Entering Link 1 = /n/sw/g16_nehalem/g16/l1.exe PID=    227640.
  
 Copyright (c) 1988,1990,1992,1993,1995,1998,2003,2009,2016,
            Gaussian, Inc.  All Rights Reserved.
  
 This is part of the Gaussian(R) 16 program.  It is based on
 the Gaussian(R) 09 system (copyright 2009, Gaussian, Inc.),
 the Gaussian(R) 03 system (copyright 2003, Gaussian, Inc.),
 the Gaussian(R) 98 system (copyright 1998, Gaussian, Inc.),
 the Gaussian(R) 94 system (copyright 1995, Gaussian, Inc.),
 the Gaussian 92(TM) system (copyright 1992, Gaussian, Inc.),
 the Gaussian 90(TM) system (copyright 1990, Gaussian, Inc.),
 the Gaussian 88(TM) system (copyright 1988, Gaussian, Inc.),
 the Gaussian 86(TM) system (copyright 1986, Carnegie Mellon
 University), and the Gaussian 82(TM) system (copyright 1983,
 Carnegie Mellon University). Gaussian is a federally registered
 trademark of Gaussian, Inc.
  
 This software contains proprietary and confidential information,
 including trade secrets, belonging to Gaussian, Inc.
  
 This software is provided under written license and may be
 used, copied, transmitted, or stored only in accord with that
 written license.
  
 The following legend is applicable only to US Government
 contracts under FAR:
  
                    RESTRICTED RIGHTS LEGEND
  
 Use, reproduction and disclosure by the US Government is
 subject to restrictions as set forth in subparagraphs (a)
 and (c) of the Commercial Computer Software - Restricted
 Rights clause in FAR 52.227-19.
  
 Gaussian, Inc.
 340 Quinnipiac St., Bldg. 40, Wallingford CT 06492
  
  
 ---------------------------------------------------------------
 Warning -- This program may not be used in any manner that
 competes with the business of Gaussian, Inc. or will provide
 assistance to any competitor of Gaussian, Inc.  The licensee
 of this program is prohibited from giving any competitor of
 Gaussian, Inc. access to this program.  By using this program,
 the user acknowledges that Gaussian, Inc. is engaged in the
 business of creating and licensing software in the field of
 computational chemistry and represents and warrants to the
 licensee that it is not a competitor of Gaussian, Inc. and that
 it will not use this program in any manner prohibited above.
 ---------------------------------------------------------------
  

 Cite this work as:
 Gaussian 16, Revision A.03,
 M. J. Frisch, G. W. Trucks, H. B. Schlegel, G. E. Scuseria, 
 M. A. Robb, J. R. Cheeseman, G. Scalmani, V. Barone, 
 G. A. Petersson, H. Nakatsuji, X. Li, M. Caricato, A. V. Marenich, 
 J. Bloino, B. G. Janesko, R. Gomperts, B. Mennucci, H. P. Hratchian, 
 J. V. Ortiz, A. F. Izmaylov, J. L. Sonnenberg, D. Williams-Young, 
 F. Ding, F. Lipparini, F. Egidi, J. Goings, B. Peng, A. Petrone, 
 T. Henderson, D. Ranasinghe, V. G. Zakrzewski, J. Gao, N. Rega, 
 G. Zheng, W. Liang, M. Hada, M. Ehara, K. Toyota, R. Fukuda, 
 J. Hasegawa, M. Ishida, T. Nakajima, Y. Honda, O. Kitao, H. Nakai, 
 T. Vreven, K. Throssell, J. A. Montgomery, Jr., J. E. Peralta, 
 F. Ogliaro, M. J. Bearpark, J. J. Heyd, E. N. Brothers, K. N. Kudin, 
 V. N. Staroverov, T. A. Keith, R. Kobayashi, J. Normand, 
 K. Raghavachari, A. P. Rendell, J. C. Burant, S. S. Iyengar, 
 J. Tomasi, M. Cossi, J. M. Millam, M. Klene, C. Adamo, R. Cammi, 
 J. W. Ochterski, R. L. Martin, K. Morokuma, O. Farkas, 
 J. B. Foresman, and D. J. Fox, Gaussian, Inc., Wallingford CT, 2016.
 
 ******************************************
 Gaussian 16:  ES64L-G16RevA.03 25-Dec-2016
                28-Apr-2020 
 ******************************************
 %mem=32GB
 %nprocshared=16
 Will use up to   16 processors via shared memory.
 ----------------------------------------------------------------------
 #p opt=modredundant freq=noraman b3lyp/6-31g(d) empiricaldispersion=gd
 3bj
 ----------------------------------------------------------------------
 1/18=120,19=15,26=3,38=1/1,3;
 2/9=110,12=2,17=6,18=5,40=1/2;
 3/5=1,6=6,7=1,11=2,25=1,30=1,71=1,74=-5,124=41/1,2,3;
 4//1;
 5/5=2,38=5/2;
 6/7=2,8=2,9=2,10=2,28=1/1;
 7//1,2,3,16;
 1/18=20,19=15,26=3/3(2);
 2/9=110/2;
 99//99;
 2/9=110/2;
 3/5=1,6=6,7=1,11=2,25=1,30=1,71=1,74=-5,124=41/1,2,3;
 4/5=5,16=3,69=1/1;
 5/5=2,38=5/2;
 7//1,2,3,16;
 1/18=20,19=15,26=3/3(-5);
 2/9=110/2;
 6/7=2,8=2,9=2,10=2,19=2,28=1/1;
 99/9=1/99;
 Leave Link    1 at Tue Apr 28 07:57:55 2020, MaxMem=  4294967296 cpu:               0.8 elap:               0.1
 (Enter /n/sw/g16_nehalem/g16/l101.exe)
 -----
 title
 -----
 Symbolic Z-matrix:
 Charge =  0 Multiplicity = 1
 6                     2.94414   0.63168  -1.79259 
 6                     3.91782   1.20808  -0.97162 
 6                     3.79087   2.72118  -1.12834 
 6                     2.54558   2.9101   -1.94696 
 1                     4.67378   3.10068  -1.65987 
 6                     2.06814   1.67011  -2.302 
 8                     0.95357   1.38788  -3.00811 
 14                   -0.62835   1.34466  -2.31309 
 6                    -0.88468   2.81524  -1.18457 
 1                    -1.00491   3.74435  -1.7496 
 1                    -1.79217   2.62453  -0.60461 
 1                    -0.06073   2.96261  -0.48127 
 6                    -1.73313   1.42858  -3.82235 
 1                    -1.59283   0.56138  -4.47577 
 1                    -2.78323   1.45328  -3.51547 
 1                    -1.52248   2.33507  -4.40088 
 6                    -0.78697  -0.25937  -1.36157 
 1                    -1.81147  -0.35369  -0.98986 
 1                    -0.55449  -1.13466  -1.97606 
 1                    -0.11989  -0.2545   -0.493 
 6                     2.72282  -0.81842  -2.0377 
 1                     3.5349   -1.42401  -1.63473 
 1                     1.78336  -1.14047  -1.57758 
 1                     2.61473  -1.0083   -3.11143 
 6                     5.21063   0.58484  -0.58055 
 6                     6.00357  -0.06937  -1.53592 
 6                     5.68574   0.68636   0.73372 
 6                     7.23741  -0.61153  -1.18413 
 1                     5.65093  -0.1389   -2.56121 
 6                     6.92018   0.14384   1.08523 
 1                     5.0794    1.17757   1.4874 
 6                     7.69904  -0.50663   0.12856 
 1                     7.83878  -1.1152   -1.93561 
 1                     7.26815   0.22039   2.1112 
 1                     8.65909  -0.93288   0.40463 
 6                     1.95493   4.20685  -2.25679 
 6                     2.10498   5.29585  -1.38032 
 6                     1.22195   4.39323  -3.44512 
 6                     1.52527   6.52676  -1.6743 
 1                     2.64042   5.16369  -0.44677 
 6                     0.65391   5.6283   -3.73921 
 1                     1.10847   3.56209  -4.13113 
 6                     0.79816   6.69903  -2.8534 
 1                     1.63661   7.35254  -0.97751 
 1                     0.09627   5.75678  -4.66266 
 1                     0.34668   7.66046  -3.08068 
 1                     3.74658   3.25472  -0.17276 
 1                     3.00051   0.96514   0.14834 
 16                    1.56938   1.85548   1.85166 
 8                     0.1905    1.43504   2.15051 
 8                     2.29966   0.72097   1.09418 
 8                     1.81185   3.18393   1.29907 
 6                     2.44693   1.7776    3.48999 
 9                     3.73298   2.10799   3.33151 
 9                     2.36853   0.53418   3.97845 
 9                     1.87661   2.62471   4.3423 
 6                    -4.32232   0.82597   0.74968 
 8                    -3.45195   1.16879  -0.05852 
 6                    -4.0124    0.95109   2.25674 
 1                    -4.68101   0.32058   2.84119 
 7                    -2.65858   0.41617   2.4647 
 6                    -4.13408   2.40369   2.79798 
 6                    -3.84574   2.37635   4.30878 
 6                    -3.15639   3.37027   2.10602 
 6                    -5.57434   2.89098   2.56428 
 1                    -4.54279   1.71163   4.83299 
 1                    -2.8293    2.02648   4.51083 
 1                    -3.95346   3.38135   4.73202 
 1                    -3.33767   3.42647   1.03077 
 1                    -3.27897   4.37313   2.53059 
 1                    -2.1103    3.08305   2.25629 
 1                    -5.69848   3.90109   2.969 
 1                    -5.82128   2.92724   1.49742 
 1                    -6.30159   2.24042   3.06346 
 1                    -1.9097    0.98695   2.08118 
 6                    -2.4832   -0.91364   2.35513 
 6                    -1.38629  -1.74624   2.09387 
 6                    -3.42248  -2.06413   2.40928 
 6                    -2.23517  -2.97185   2.04116 
 8                    -2.0683   -4.13712   1.74415 
 8                    -4.61474  -2.20081   2.62709 
 7                    -0.06426  -1.49816   1.9684 
 1                     0.24415  -0.55394   2.18657 
 6                     0.83946  -2.32009   1.2731 
 6                     2.19802  -2.27801   1.61212 
 6                     0.41181  -3.11728   0.20939 
 6                     3.11003  -3.03445   0.88667 
 1                     2.53369  -1.64198   2.42067 
 6                     1.34326  -3.86443  -0.50851 
 1                    -0.6289   -3.12691  -0.08188 
 6                     2.694    -3.83838  -0.17781 
 1                     3.41271  -4.4106   -0.75158 
 6                     0.87533  -4.56634  -1.75275 
 6                     4.57401  -2.99659   1.22187 
 9                     1.76381  -5.48545  -2.18669 
 9                    -0.30528  -5.18432  -1.57272 
 9                     0.7093   -3.66806  -2.75967 
 9                     5.01251  -4.18715   1.68811 
 9                     5.31151  -2.71772   0.12022 
 9                     4.8647   -2.06707   2.15555 
 7                    -5.50224   0.29477   0.35005 
 6                    -6.60229  -0.18276   1.20868 
 6                    -5.76044   0.05438  -1.10401 
 6                    -7.35077  -1.16727   0.30875 
 1                    -6.21517  -0.66813   2.10336 
 6                    -7.19354  -0.55045  -1.08242 
 1                    -6.87491  -2.15071   0.35935 
 1                    -7.33025  -1.26539  -1.89698 
 1                    -7.24755   0.65716   1.49582 
 1                    -8.39617  -1.28386   0.60756 
 1                    -7.92424   0.25664  -1.21568 
 6                    -4.75172  -0.96192  -1.65617 
 6                    -4.30588  -0.89907  -2.98091 
 6                    -4.29324  -2.02134  -0.8598 
 6                    -3.41356  -1.8414   -3.49227 
 1                    -4.64045  -0.10205  -3.63419 
 6                    -3.40172  -2.97508  -1.35006 
 1                    -4.62192  -2.10541   0.16745 
 6                    -2.96972  -2.86362  -2.66555 
 1                    -3.05618  -1.78484  -4.51482 
 1                    -3.04445  -3.78601  -0.72347 
 9                    -2.09124  -3.76348  -3.15424 
 6                    -5.76543   1.38031  -1.87812 
 1                    -6.18988   1.23974  -2.87742 
 1                    -6.39927   2.09915  -1.34901 
 1                    -4.76144   1.79565  -1.96315 
 
 Add virtual bond connecting atoms O51        and H48        Dist= 2.27D+00.
 Add virtual bond connecting atoms H48        and C2         Dist= 2.77D+00.
 Add virtual bond connecting atoms H75        and O50        Dist= 4.06D+00.
 Add virtual bond connecting atoms H83        and O50        Dist= 3.76D+00.
 The following ModRedundant input section has been read:
 B      48      50 F                                                           
 B       2      48 F                                                           
 
 ITRead=  0  0  0  0  0  0  0  0  0  0  0  0  0  0  0  0  0  0  0  0
 ITRead=  0  0  0  0  0  0  0  0  0  0  0  0  0  0  0  0  0  0  0  0
 ITRead=  0  0  0  0  0  0  0  0  0  0  0  0  0  0  0  0  0  0  0  0
 ITRead=  0  0  0  0  0  0  0  0  0  0  0  0  0  0  0  0  0  0  0  0
 ITRead=  0  0  0  0  0  0  0  0  0  0  0  0  0  0  0  0  0  0  0  0
 ITRead=  0  0  0  0  0  0  0  0  0  0  0  0  0  0  0  0  0  0  0  0
 ITRead=  0  0  0  0  0  0
 MicOpt= -1 -1 -1 -1 -1 -1 -1 -1 -1 -1 -1 -1 -1 -1 -1 -1 -1 -1 -1 -1
 MicOpt= -1 -1 -1 -1 -1 -1 -1 -1 -1 -1 -1 -1 -1 -1 -1 -1 -1 -1 -1 -1
 MicOpt= -1 -1 -1 -1 -1 -1 -1 -1 -1 -1 -1 -1 -1 -1 -1 -1 -1 -1 -1 -1
 MicOpt= -1 -1 -1 -1 -1 -1 -1 -1 -1 -1 -1 -1 -1 -1 -1 -1 -1 -1 -1 -1
 MicOpt= -1 -1 -1 -1 -1 -1 -1 -1 -1 -1 -1 -1 -1 -1 -1 -1 -1 -1 -1 -1
 MicOpt= -1 -1 -1 -1 -1 -1 -1 -1 -1 -1 -1 -1 -1 -1 -1 -1 -1 -1 -1 -1
 MicOpt= -1 -1 -1 -1 -1 -1
 NAtoms=    126 NQM=      126 NQMF=       0 NMMI=      0 NMMIF=      0
                NMic=       0 NMicF=      0.
                    Isotopes and Nuclear Properties:
 (Nuclear quadrupole moments (NQMom) in fm**2, nuclear magnetic moments (NMagM)
  in nuclear magnetons)

  Atom         1           2           3           4           5           6           7           8           9          10
 IAtWgt=          12          12          12          12           1          12          16          28          12           1
 AtmWgt=  12.0000000  12.0000000  12.0000000  12.0000000   1.0078250  12.0000000  15.9949146  27.9769284  12.0000000   1.0078250
 NucSpn=           0           0           0           0           1           0           0           0           0           1
 AtZEff=   0.0000000   0.0000000   0.0000000   0.0000000   0.0000000   0.0000000   0.0000000   0.0000000   0.0000000   0.0000000
 NQMom=    0.0000000   0.0000000   0.0000000   0.0000000   0.0000000   0.0000000   0.0000000   0.0000000   0.0000000   0.0000000
 NMagM=    0.0000000   0.0000000   0.0000000   0.0000000   2.7928460   0.0000000   0.0000000   0.0000000   0.0000000   2.7928460
 AtZNuc=   6.0000000   6.0000000   6.0000000   6.0000000   1.0000000   6.0000000   8.0000000  14.0000000   6.0000000   1.0000000

  Atom        11          12          13          14          15          16          17          18          19          20
 IAtWgt=           1           1          12           1           1           1          12           1           1           1
 AtmWgt=   1.0078250   1.0078250  12.0000000   1.0078250   1.0078250   1.0078250  12.0000000   1.0078250   1.0078250   1.0078250
 NucSpn=           1           1           0           1           1           1           0           1           1           1
 AtZEff=   0.0000000   0.0000000   0.0000000   0.0000000   0.0000000   0.0000000   0.0000000   0.0000000   0.0000000   0.0000000
 NQMom=    0.0000000   0.0000000   0.0000000   0.0000000   0.0000000   0.0000000   0.0000000   0.0000000   0.0000000   0.0000000
 NMagM=    2.7928460   2.7928460   0.0000000   2.7928460   2.7928460   2.7928460   0.0000000   2.7928460   2.7928460   2.7928460
 AtZNuc=   1.0000000   1.0000000   6.0000000   1.0000000   1.0000000   1.0000000   6.0000000   1.0000000   1.0000000   1.0000000

  Atom        21          22          23          24          25          26          27          28          29          30
 IAtWgt=          12           1           1           1          12          12          12          12           1          12
 AtmWgt=  12.0000000   1.0078250   1.0078250   1.0078250  12.0000000  12.0000000  12.0000000  12.0000000   1.0078250  12.0000000
 NucSpn=           0           1           1           1           0           0           0           0           1           0
 AtZEff=   0.0000000   0.0000000   0.0000000   0.0000000   0.0000000   0.0000000   0.0000000   0.0000000   0.0000000   0.0000000
 NQMom=    0.0000000   0.0000000   0.0000000   0.0000000   0.0000000   0.0000000   0.0000000   0.0000000   0.0000000   0.0000000
 NMagM=    0.0000000   2.7928460   2.7928460   2.7928460   0.0000000   0.0000000   0.0000000   0.0000000   2.7928460   0.0000000
 AtZNuc=   6.0000000   1.0000000   1.0000000   1.0000000   6.0000000   6.0000000   6.0000000   6.0000000   1.0000000   6.0000000

  Atom        31          32          33          34          35          36          37          38          39          40
 IAtWgt=           1          12           1           1           1          12          12          12          12           1
 AtmWgt=   1.0078250  12.0000000   1.0078250   1.0078250   1.0078250  12.0000000  12.0000000  12.0000000  12.0000000   1.0078250
 NucSpn=           1           0           1           1           1           0           0           0           0           1
 AtZEff=   0.0000000   0.0000000   0.0000000   0.0000000   0.0000000   0.0000000   0.0000000   0.0000000   0.0000000   0.0000000
 NQMom=    0.0000000   0.0000000   0.0000000   0.0000000   0.0000000   0.0000000   0.0000000   0.0000000   0.0000000   0.0000000
 NMagM=    2.7928460   0.0000000   2.7928460   2.7928460   2.7928460   0.0000000   0.0000000   0.0000000   0.0000000   2.7928460
 AtZNuc=   1.0000000   6.0000000   1.0000000   1.0000000   1.0000000   6.0000000   6.0000000   6.0000000   6.0000000   1.0000000

  Atom        41          42          43          44          45          46          47          48          49          50
 IAtWgt=          12           1          12           1           1           1           1           1          32          16
 AtmWgt=  12.0000000   1.0078250  12.0000000   1.0078250   1.0078250   1.0078250   1.0078250   1.0078250  31.9720718  15.9949146
 NucSpn=           0           1           0           1           1           1           1           1           0           0
 AtZEff=   0.0000000   0.0000000   0.0000000   0.0000000   0.0000000   0.0000000   0.0000000   0.0000000   0.0000000   0.0000000
 NQMom=    0.0000000   0.0000000   0.0000000   0.0000000   0.0000000   0.0000000   0.0000000   0.0000000   0.0000000   0.0000000
 NMagM=    0.0000000   2.7928460   0.0000000   2.7928460   2.7928460   2.7928460   2.7928460   2.7928460   0.0000000   0.0000000
 AtZNuc=   6.0000000   1.0000000   6.0000000   1.0000000   1.0000000   1.0000000   1.0000000   1.0000000  16.0000000   8.0000000

  Atom        51          52          53          54          55          56          57          58          59          60
 IAtWgt=          16          16          12          19          19          19          12          16          12           1
 AtmWgt=  15.9949146  15.9949146  12.0000000  18.9984033  18.9984033  18.9984033  12.0000000  15.9949146  12.0000000   1.0078250
 NucSpn=           0           0           0           1           1           1           0           0           0           1
 AtZEff=   0.0000000   0.0000000   0.0000000   0.0000000   0.0000000   0.0000000   0.0000000   0.0000000   0.0000000   0.0000000
 NQMom=    0.0000000   0.0000000   0.0000000   0.0000000   0.0000000   0.0000000   0.0000000   0.0000000   0.0000000   0.0000000
 NMagM=    0.0000000   0.0000000   0.0000000   2.6288670   2.6288670   2.6288670   0.0000000   0.0000000   0.0000000   2.7928460
 AtZNuc=   8.0000000   8.0000000   6.0000000   9.0000000   9.0000000   9.0000000   6.0000000   8.0000000   6.0000000   1.0000000

  Atom        61          62          63          64          65          66          67          68          69          70
 IAtWgt=          14          12          12          12          12           1           1           1           1           1
 AtmWgt=  14.0030740  12.0000000  12.0000000  12.0000000  12.0000000   1.0078250   1.0078250   1.0078250   1.0078250   1.0078250
 NucSpn=           2           0           0           0           0           1           1           1           1           1
 AtZEff=   0.0000000   0.0000000   0.0000000   0.0000000   0.0000000   0.0000000   0.0000000   0.0000000   0.0000000   0.0000000
 NQMom=    2.0440000   0.0000000   0.0000000   0.0000000   0.0000000   0.0000000   0.0000000   0.0000000   0.0000000   0.0000000
 NMagM=    0.4037610   0.0000000   0.0000000   0.0000000   0.0000000   2.7928460   2.7928460   2.7928460   2.7928460   2.7928460
 AtZNuc=   7.0000000   6.0000000   6.0000000   6.0000000   6.0000000   1.0000000   1.0000000   1.0000000   1.0000000   1.0000000

  Atom        71          72          73          74          75          76          77          78          79          80
 IAtWgt=           1           1           1           1           1          12          12          12          12          16
 AtmWgt=   1.0078250   1.0078250   1.0078250   1.0078250   1.0078250  12.0000000  12.0000000  12.0000000  12.0000000  15.9949146
 NucSpn=           1           1           1           1           1           0           0           0           0           0
 AtZEff=   0.0000000   0.0000000   0.0000000   0.0000000   0.0000000   0.0000000   0.0000000   0.0000000   0.0000000   0.0000000
 NQMom=    0.0000000   0.0000000   0.0000000   0.0000000   0.0000000   0.0000000   0.0000000   0.0000000   0.0000000   0.0000000
 NMagM=    2.7928460   2.7928460   2.7928460   2.7928460   2.7928460   0.0000000   0.0000000   0.0000000   0.0000000   0.0000000
 AtZNuc=   1.0000000   1.0000000   1.0000000   1.0000000   1.0000000   6.0000000   6.0000000   6.0000000   6.0000000   8.0000000

  Atom        81          82          83          84          85          86          87          88          89          90
 IAtWgt=          16          14           1          12          12          12          12           1          12           1
 AtmWgt=  15.9949146  14.0030740   1.0078250  12.0000000  12.0000000  12.0000000  12.0000000   1.0078250  12.0000000   1.0078250
 NucSpn=           0           2           1           0           0           0           0           1           0           1
 AtZEff=   0.0000000   0.0000000   0.0000000   0.0000000   0.0000000   0.0000000   0.0000000   0.0000000   0.0000000   0.0000000
 NQMom=    0.0000000   2.0440000   0.0000000   0.0000000   0.0000000   0.0000000   0.0000000   0.0000000   0.0000000   0.0000000
 NMagM=    0.0000000   0.4037610   2.7928460   0.0000000   0.0000000   0.0000000   0.0000000   2.7928460   0.0000000   2.7928460
 AtZNuc=   8.0000000   7.0000000   1.0000000   6.0000000   6.0000000   6.0000000   6.0000000   1.0000000   6.0000000   1.0000000

  Atom        91          92          93          94          95          96          97          98          99         100
 IAtWgt=          12           1          12          12          19          19          19          19          19          19
 AtmWgt=  12.0000000   1.0078250  12.0000000  12.0000000  18.9984033  18.9984033  18.9984033  18.9984033  18.9984033  18.9984033
 NucSpn=           0           1           0           0           1           1           1           1           1           1
 AtZEff=   0.0000000   0.0000000   0.0000000   0.0000000   0.0000000   0.0000000   0.0000000   0.0000000   0.0000000   0.0000000
 NQMom=    0.0000000   0.0000000   0.0000000   0.0000000   0.0000000   0.0000000   0.0000000   0.0000000   0.0000000   0.0000000
 NMagM=    0.0000000   2.7928460   0.0000000   0.0000000   2.6288670   2.6288670   2.6288670   2.6288670   2.6288670   2.6288670
 AtZNuc=   6.0000000   1.0000000   6.0000000   6.0000000   9.0000000   9.0000000   9.0000000   9.0000000   9.0000000   9.0000000

  Atom       101         102         103         104         105         106         107         108         109         110
 IAtWgt=          14          12          12          12           1          12           1           1           1           1
 AtmWgt=  14.0030740  12.0000000  12.0000000  12.0000000   1.0078250  12.0000000   1.0078250   1.0078250   1.0078250   1.0078250
 NucSpn=           2           0           0           0           1           0           1           1           1           1
 AtZEff=   0.0000000   0.0000000   0.0000000   0.0000000   0.0000000   0.0000000   0.0000000   0.0000000   0.0000000   0.0000000
 NQMom=    2.0440000   0.0000000   0.0000000   0.0000000   0.0000000   0.0000000   0.0000000   0.0000000   0.0000000   0.0000000
 NMagM=    0.4037610   0.0000000   0.0000000   0.0000000   2.7928460   0.0000000   2.7928460   2.7928460   2.7928460   2.7928460
 AtZNuc=   7.0000000   6.0000000   6.0000000   6.0000000   1.0000000   6.0000000   1.0000000   1.0000000   1.0000000   1.0000000

  Atom       111         112         113         114         115         116         117         118         119         120
 IAtWgt=           1          12          12          12          12           1          12           1          12           1
 AtmWgt=   1.0078250  12.0000000  12.0000000  12.0000000  12.0000000   1.0078250  12.0000000   1.0078250  12.0000000   1.0078250
 NucSpn=           1           0           0           0           0           1           0           1           0           1
 AtZEff=   0.0000000   0.0000000   0.0000000   0.0000000   0.0000000   0.0000000   0.0000000   0.0000000   0.0000000   0.0000000
 NQMom=    0.0000000   0.0000000   0.0000000   0.0000000   0.0000000   0.0000000   0.0000000   0.0000000   0.0000000   0.0000000
 NMagM=    2.7928460   0.0000000   0.0000000   0.0000000   0.0000000   2.7928460   0.0000000   2.7928460   0.0000000   2.7928460
 AtZNuc=   1.0000000   6.0000000   6.0000000   6.0000000   6.0000000   1.0000000   6.0000000   1.0000000   6.0000000   1.0000000

  Atom       121         122         123         124         125         126
 IAtWgt=           1          19          12           1           1           1
 AtmWgt=   1.0078250  18.9984033  12.0000000   1.0078250   1.0078250   1.0078250
 NucSpn=           1           1           0           1           1           1
 AtZEff=   0.0000000   0.0000000   0.0000000   0.0000000   0.0000000   0.0000000
 NQMom=    0.0000000   0.0000000   0.0000000   0.0000000   0.0000000   0.0000000
 NMagM=    2.7928460   2.6288670   0.0000000   2.7928460   2.7928460   2.7928460
 AtZNuc=   1.0000000   9.0000000   6.0000000   1.0000000   1.0000000   1.0000000
 Leave Link  101 at Tue Apr 28 07:57:56 2020, MaxMem=  4294967296 cpu:               8.7 elap:               0.6
 (Enter /n/sw/g16_nehalem/g16/l103.exe)

 GradGradGradGradGradGradGradGradGradGradGradGradGradGradGradGradGradGrad
 Berny optimization.
 Initialization pass.
                           ----------------------------
                           !    Initial Parameters    !
                           ! (Angstroms and Degrees)  !
 --------------------------                            --------------------------
 ! Name  Definition              Value          Derivative Info.                !
 --------------------------------------------------------------------------------
 ! R1    R(1,2)                  1.398          estimate D2E/DX2                !
 ! R2    R(1,6)                  1.4509         estimate D2E/DX2                !
 ! R3    R(1,21)                 1.4872         estimate D2E/DX2                !
 ! R4    R(2,3)                  1.5265         estimate D2E/DX2                !
 ! R5    R(2,25)                 1.4875         estimate D2E/DX2                !
 ! R6    R(2,48)                 1.4679         Frozen                          !
 ! R7    R(3,4)                  1.5022         estimate D2E/DX2                !
 ! R8    R(3,5)                  1.0982         estimate D2E/DX2                !
 ! R9    R(3,47)                 1.0953         estimate D2E/DX2                !
 ! R10   R(4,6)                  1.3753         estimate D2E/DX2                !
 ! R11   R(4,36)                 1.4582         estimate D2E/DX2                !
 ! R12   R(6,7)                  1.3493         estimate D2E/DX2                !
 ! R13   R(7,8)                  1.7284         estimate D2E/DX2                !
 ! R14   R(8,9)                  1.8713         estimate D2E/DX2                !
 ! R15   R(8,13)                 1.8723         estimate D2E/DX2                !
 ! R16   R(8,17)                 1.8718         estimate D2E/DX2                !
 ! R17   R(9,10)                 1.0941         estimate D2E/DX2                !
 ! R18   R(9,11)                 1.0937         estimate D2E/DX2                !
 ! R19   R(9,12)                 1.0933         estimate D2E/DX2                !
 ! R20   R(13,14)                1.0948         estimate D2E/DX2                !
 ! R21   R(13,15)                1.0943         estimate D2E/DX2                !
 ! R22   R(13,16)                1.0958         estimate D2E/DX2                !
 ! R23   R(17,18)                1.0939         estimate D2E/DX2                !
 ! R24   R(17,19)                1.0944         estimate D2E/DX2                !
 ! R25   R(17,20)                1.0952         estimate D2E/DX2                !
 ! R26   R(21,22)                1.0902         estimate D2E/DX2                !
 ! R27   R(21,23)                1.0945         estimate D2E/DX2                !
 ! R28   R(21,24)                1.0957         estimate D2E/DX2                !
 ! R29   R(25,26)                1.4034         estimate D2E/DX2                !
 ! R30   R(25,27)                1.4012         estimate D2E/DX2                !
 ! R31   R(26,28)                1.3929         estimate D2E/DX2                !
 ! R32   R(26,29)                1.0865         estimate D2E/DX2                !
 ! R33   R(27,30)                1.3935         estimate D2E/DX2                !
 ! R34   R(27,31)                1.0849         estimate D2E/DX2                !
 ! R35   R(28,32)                1.3954         estimate D2E/DX2                !
 ! R36   R(28,33)                1.0863         estimate D2E/DX2                !
 ! R37   R(30,32)                1.3946         estimate D2E/DX2                !
 ! R38   R(30,34)                1.0861         estimate D2E/DX2                !
 ! R39   R(32,35)                1.0861         estimate D2E/DX2                !
 ! R40   R(36,37)                1.4059         estimate D2E/DX2                !
 ! R41   R(36,38)                1.4086         estimate D2E/DX2                !
 ! R42   R(37,39)                1.392          estimate D2E/DX2                !
 ! R43   R(37,40)                1.0843         estimate D2E/DX2                !
 ! R44   R(38,41)                1.3909         estimate D2E/DX2                !
 ! R45   R(38,42)                1.0836         estimate D2E/DX2                !
 ! R46   R(39,43)                1.3959         estimate D2E/DX2                !
 ! R47   R(39,44)                1.0862         estimate D2E/DX2                !
 ! R48   R(41,43)                1.3971         estimate D2E/DX2                !
 ! R49   R(41,45)                1.0864         estimate D2E/DX2                !
 ! R50   R(43,46)                1.0862         estimate D2E/DX2                !
 ! R51   R(48,50)                3.4822         Frozen                          !
 ! R52   R(48,51)                1.2023         estimate D2E/DX2                !
 ! R53   R(49,50)                1.4722         estimate D2E/DX2                !
 ! R54   R(49,51)                1.5473         estimate D2E/DX2                !
 ! R55   R(49,52)                1.4591         estimate D2E/DX2                !
 ! R56   R(49,53)                1.8602         estimate D2E/DX2                !
 ! R57   R(50,75)                2.1486         estimate D2E/DX2                !
 ! R58   R(50,83)                1.99           estimate D2E/DX2                !
 ! R59   R(53,54)                1.3372         estimate D2E/DX2                !
 ! R60   R(53,55)                1.3382         estimate D2E/DX2                !
 ! R61   R(53,56)                1.3302         estimate D2E/DX2                !
 ! R62   R(57,58)                1.2362         estimate D2E/DX2                !
 ! R63   R(57,59)                1.5437         estimate D2E/DX2                !
 ! R64   R(57,101)               1.3543         estimate D2E/DX2                !
 ! R65   R(59,60)                1.0891         estimate D2E/DX2                !
 ! R66   R(59,61)                1.4705         estimate D2E/DX2                !
 ! R67   R(59,62)                1.5549         estimate D2E/DX2                !
 ! R68   R(61,75)                1.0167         estimate D2E/DX2                !
 ! R69   R(61,76)                1.3458         estimate D2E/DX2                !
 ! R70   R(62,63)                1.5383         estimate D2E/DX2                !
 ! R71   R(62,64)                1.5392         estimate D2E/DX2                !
 ! R72   R(62,65)                1.5383         estimate D2E/DX2                !
 ! R73   R(63,66)                1.0966         estimate D2E/DX2                !
 ! R74   R(63,67)                1.0938         estimate D2E/DX2                !
 ! R75   R(63,68)                1.0958         estimate D2E/DX2                !
 ! R76   R(64,69)                1.0919         estimate D2E/DX2                !
 ! R77   R(64,70)                1.0959         estimate D2E/DX2                !
 ! R78   R(64,71)                1.0952         estimate D2E/DX2                !
 ! R79   R(65,72)                1.0952         estimate D2E/DX2                !
 ! R80   R(65,73)                1.0957         estimate D2E/DX2                !
 ! R81   R(65,74)                1.096          estimate D2E/DX2                !
 ! R82   R(76,77)                1.4017         estimate D2E/DX2                !
 ! R83   R(76,78)                1.4862         estimate D2E/DX2                !
 ! R84   R(77,79)                1.4918         estimate D2E/DX2                !
 ! R85   R(77,82)                1.3509         estimate D2E/DX2                !
 ! R86   R(78,79)                1.5392         estimate D2E/DX2                !
 ! R87   R(78,81)                1.2197         estimate D2E/DX2                !
 ! R88   R(79,80)                1.2141         estimate D2E/DX2                !
 ! R89   R(82,83)                1.017          estimate D2E/DX2                !
 ! R90   R(82,84)                1.4056         estimate D2E/DX2                !
 ! R91   R(84,85)                1.4009         estimate D2E/DX2                !
 ! R92   R(84,86)                1.3964         estimate D2E/DX2                !
 ! R93   R(85,87)                1.3893         estimate D2E/DX2                !
 ! R94   R(85,88)                1.0821         estimate D2E/DX2                !
 ! R95   R(86,89)                1.3933         estimate D2E/DX2                !
 ! R96   R(86,90)                1.0807         estimate D2E/DX2                !
 ! R97   R(87,91)                1.3973         estimate D2E/DX2                !
 ! R98   R(87,94)                1.5023         estimate D2E/DX2                !
 ! R99   R(89,91)                1.3909         estimate D2E/DX2                !
 ! R100  R(89,93)                1.5033         estimate D2E/DX2                !
 ! R101  R(91,92)                1.0831         estimate D2E/DX2                !
 ! R102  R(93,95)                1.35           estimate D2E/DX2                !
 ! R103  R(93,96)                1.3447         estimate D2E/DX2                !
 ! R104  R(93,97)                1.3596         estimate D2E/DX2                !
 ! R105  R(94,98)                1.3517         estimate D2E/DX2                !
 ! R106  R(94,99)                1.3547         estimate D2E/DX2                !
 ! R107  R(94,100)               1.3492         estimate D2E/DX2                !
 ! R108  R(101,102)              1.4749         estimate D2E/DX2                !
 ! R109  R(101,103)              1.4962         estimate D2E/DX2                !
 ! R110  R(102,104)              1.5295         estimate D2E/DX2                !
 ! R111  R(102,105)              1.089          estimate D2E/DX2                !
 ! R112  R(102,109)              1.0974         estimate D2E/DX2                !
 ! R113  R(103,106)              1.5557         estimate D2E/DX2                !
 ! R114  R(103,112)              1.5347         estimate D2E/DX2                !
 ! R115  R(103,123)              1.5354         estimate D2E/DX2                !
 ! R116  R(104,106)              1.5299         estimate D2E/DX2                !
 ! R117  R(104,107)              1.0937         estimate D2E/DX2                !
 ! R118  R(104,110)              1.0935         estimate D2E/DX2                !
 ! R119  R(106,108)              1.0924         estimate D2E/DX2                !
 ! R120  R(106,111)              1.0969         estimate D2E/DX2                !
 ! R121  R(112,113)              1.3992         estimate D2E/DX2                !
 ! R122  R(112,114)              1.4024         estimate D2E/DX2                !
 ! R123  R(113,115)              1.3949         estimate D2E/DX2                !
 ! R124  R(113,116)              1.0835         estimate D2E/DX2                !
 ! R125  R(114,117)              1.3946         estimate D2E/DX2                !
 ! R126  R(114,118)              1.0818         estimate D2E/DX2                !
 ! R127  R(115,119)              1.3876         estimate D2E/DX2                !
 ! R128  R(115,120)              1.0847         estimate D2E/DX2                !
 ! R129  R(117,119)              1.3891         estimate D2E/DX2                !
 ! R130  R(117,121)              1.0853         estimate D2E/DX2                !
 ! R131  R(119,122)              1.3492         estimate D2E/DX2                !
 ! R132  R(123,124)              1.0948         estimate D2E/DX2                !
 ! R133  R(123,125)              1.0947         estimate D2E/DX2                !
 ! R134  R(123,126)              1.0898         estimate D2E/DX2                !
 ! A1    A(2,1,6)              109.3664         estimate D2E/DX2                !
 ! A2    A(2,1,21)             127.0457         estimate D2E/DX2                !
 ! A3    A(6,1,21)             123.3755         estimate D2E/DX2                !
 ! A4    A(1,2,3)              106.8865         estimate D2E/DX2                !
 ! A5    A(1,2,25)             125.9431         estimate D2E/DX2                !
 ! A6    A(1,2,48)              86.8222         estimate D2E/DX2                !
 ! A7    A(3,2,25)             120.9692         estimate D2E/DX2                !
 ! A8    A(3,2,48)             100.9764         estimate D2E/DX2                !
 ! A9    A(25,2,48)            105.8539         estimate D2E/DX2                !
 ! A10   A(2,3,4)              104.4513         estimate D2E/DX2                !
 ! A11   A(2,3,5)              108.9874         estimate D2E/DX2                !
 ! A12   A(2,3,47)             113.3676         estimate D2E/DX2                !
 ! A13   A(4,3,5)              111.0543         estimate D2E/DX2                !
 ! A14   A(4,3,47)             112.3731         estimate D2E/DX2                !
 ! A15   A(5,3,47)             106.6438         estimate D2E/DX2                !
 ! A16   A(3,4,6)              108.3644         estimate D2E/DX2                !
 ! A17   A(3,4,36)             124.2914         estimate D2E/DX2                !
 ! A18   A(6,4,36)             127.3219         estimate D2E/DX2                !
 ! A19   A(1,6,4)              110.1846         estimate D2E/DX2                !
 ! A20   A(1,6,7)              122.1926         estimate D2E/DX2                !
 ! A21   A(4,6,7)              127.621          estimate D2E/DX2                !
 ! A22   A(6,7,8)              123.4246         estimate D2E/DX2                !
 ! A23   A(7,8,9)              110.3784         estimate D2E/DX2                !
 ! A24   A(7,8,13)             102.4035         estimate D2E/DX2                !
 ! A25   A(7,8,17)             107.6626         estimate D2E/DX2                !
 ! A26   A(9,8,13)             111.7204         estimate D2E/DX2                !
 ! A27   A(9,8,17)             110.8096         estimate D2E/DX2                !
 ! A28   A(13,8,17)            113.4656         estimate D2E/DX2                !
 ! A29   A(8,9,10)             111.7754         estimate D2E/DX2                !
 ! A30   A(8,9,11)             107.2418         estimate D2E/DX2                !
 ! A31   A(8,9,12)             112.9945         estimate D2E/DX2                !
 ! A32   A(10,9,11)            109.3142         estimate D2E/DX2                !
 ! A33   A(10,9,12)            107.4924         estimate D2E/DX2                !
 ! A34   A(11,9,12)            107.9214         estimate D2E/DX2                !
 ! A35   A(8,13,14)            111.7143         estimate D2E/DX2                !
 ! A36   A(8,13,15)            109.9497         estimate D2E/DX2                !
 ! A37   A(8,13,16)            110.4403         estimate D2E/DX2                !
 ! A38   A(14,13,15)           107.9515         estimate D2E/DX2                !
 ! A39   A(14,13,16)           108.3915         estimate D2E/DX2                !
 ! A40   A(15,13,16)           108.2916         estimate D2E/DX2                !
 ! A41   A(8,17,18)            109.0258         estimate D2E/DX2                !
 ! A42   A(8,17,19)            112.4541         estimate D2E/DX2                !
 ! A43   A(8,17,20)            110.3495         estimate D2E/DX2                !
 ! A44   A(18,17,19)           108.7094         estimate D2E/DX2                !
 ! A45   A(18,17,20)           107.5382         estimate D2E/DX2                !
 ! A46   A(19,17,20)           108.6304         estimate D2E/DX2                !
 ! A47   A(1,21,22)            111.7061         estimate D2E/DX2                !
 ! A48   A(1,21,23)            110.2021         estimate D2E/DX2                !
 ! A49   A(1,21,24)            110.1907         estimate D2E/DX2                !
 ! A50   A(22,21,23)           108.6938         estimate D2E/DX2                !
 ! A51   A(22,21,24)           109.8417         estimate D2E/DX2                !
 ! A52   A(23,21,24)           106.038          estimate D2E/DX2                !
 ! A53   A(2,25,26)            120.4906         estimate D2E/DX2                !
 ! A54   A(2,25,27)            120.7257         estimate D2E/DX2                !
 ! A55   A(26,25,27)           118.7328         estimate D2E/DX2                !
 ! A56   A(25,26,28)           120.6656         estimate D2E/DX2                !
 ! A57   A(25,26,29)           119.2665         estimate D2E/DX2                !
 ! A58   A(28,26,29)           120.0633         estimate D2E/DX2                !
 ! A59   A(25,27,30)           120.5826         estimate D2E/DX2                !
 ! A60   A(25,27,31)           119.6641         estimate D2E/DX2                !
 ! A61   A(30,27,31)           119.7457         estimate D2E/DX2                !
 ! A62   A(26,28,32)           120.0911         estimate D2E/DX2                !
 ! A63   A(26,28,33)           119.745          estimate D2E/DX2                !
 ! A64   A(32,28,33)           120.1639         estimate D2E/DX2                !
 ! A65   A(27,30,32)           120.218          estimate D2E/DX2                !
 ! A66   A(27,30,34)           119.6489         estimate D2E/DX2                !
 ! A67   A(32,30,34)           120.1296         estimate D2E/DX2                !
 ! A68   A(28,32,30)           119.7095         estimate D2E/DX2                !
 ! A69   A(28,32,35)           120.135          estimate D2E/DX2                !
 ! A70   A(30,32,35)           120.1552         estimate D2E/DX2                !
 ! A71   A(4,36,37)            120.8715         estimate D2E/DX2                !
 ! A72   A(4,36,38)            120.5094         estimate D2E/DX2                !
 ! A73   A(37,36,38)           118.619          estimate D2E/DX2                !
 ! A74   A(36,37,39)           120.586          estimate D2E/DX2                !
 ! A75   A(36,37,40)           119.6722         estimate D2E/DX2                !
 ! A76   A(39,37,40)           119.6881         estimate D2E/DX2                !
 ! A77   A(36,38,41)           120.5561         estimate D2E/DX2                !
 ! A78   A(36,38,42)           119.1489         estimate D2E/DX2                !
 ! A79   A(41,38,42)           120.2947         estimate D2E/DX2                !
 ! A80   A(37,39,43)           120.2946         estimate D2E/DX2                !
 ! A81   A(37,39,44)           119.611          estimate D2E/DX2                !
 ! A82   A(43,39,44)           120.0934         estimate D2E/DX2                !
 ! A83   A(38,41,43)           120.2855         estimate D2E/DX2                !
 ! A84   A(38,41,45)           119.6283         estimate D2E/DX2                !
 ! A85   A(43,41,45)           120.0862         estimate D2E/DX2                !
 ! A86   A(39,43,41)           119.6526         estimate D2E/DX2                !
 ! A87   A(39,43,46)           120.1641         estimate D2E/DX2                !
 ! A88   A(41,43,46)           120.1833         estimate D2E/DX2                !
 ! A89   A(50,49,51)           109.392          estimate D2E/DX2                !
 ! A90   A(50,49,52)           119.5075         estimate D2E/DX2                !
 ! A91   A(50,49,53)           104.543          estimate D2E/DX2                !
 ! A92   A(51,49,52)           113.8115         estimate D2E/DX2                !
 ! A93   A(51,49,53)           100.2422         estimate D2E/DX2                !
 ! A94   A(52,49,53)           107.0545         estimate D2E/DX2                !
 ! A95   A(49,50,83)           105.2991         estimate D2E/DX2                !
 ! A96   A(75,50,83)            79.5427         estimate D2E/DX2                !
 ! A97   A(48,51,49)           120.7541         estimate D2E/DX2                !
 ! A98   A(49,53,54)           109.8144         estimate D2E/DX2                !
 ! A99   A(49,53,55)           109.4348         estimate D2E/DX2                !
 ! A100  A(49,53,56)           109.5972         estimate D2E/DX2                !
 ! A101  A(54,53,55)           109.2186         estimate D2E/DX2                !
 ! A102  A(54,53,56)           109.3262         estimate D2E/DX2                !
 ! A103  A(55,53,56)           109.4349         estimate D2E/DX2                !
 ! A104  A(58,57,59)           118.322          estimate D2E/DX2                !
 ! A105  A(58,57,101)          121.9558         estimate D2E/DX2                !
 ! A106  A(59,57,101)          119.6562         estimate D2E/DX2                !
 ! A107  A(57,59,60)           110.715          estimate D2E/DX2                !
 ! A108  A(57,59,61)           107.0631         estimate D2E/DX2                !
 ! A109  A(57,59,62)           113.5678         estimate D2E/DX2                !
 ! A110  A(60,59,61)           106.1837         estimate D2E/DX2                !
 ! A111  A(60,59,62)           107.8181         estimate D2E/DX2                !
 ! A112  A(61,59,62)           111.2641         estimate D2E/DX2                !
 ! A113  A(59,61,75)           114.8704         estimate D2E/DX2                !
 ! A114  A(59,61,76)           117.8998         estimate D2E/DX2                !
 ! A115  A(75,61,76)           115.3433         estimate D2E/DX2                !
 ! A116  A(59,62,63)           108.0946         estimate D2E/DX2                !
 ! A117  A(59,62,64)           112.363          estimate D2E/DX2                !
 ! A118  A(59,62,65)           108.4403         estimate D2E/DX2                !
 ! A119  A(63,62,64)           109.4891         estimate D2E/DX2                !
 ! A120  A(63,62,65)           109.2885         estimate D2E/DX2                !
 ! A121  A(64,62,65)           109.1167         estimate D2E/DX2                !
 ! A122  A(62,63,66)           111.1684         estimate D2E/DX2                !
 ! A123  A(62,63,67)           111.1792         estimate D2E/DX2                !
 ! A124  A(62,63,68)           110.158          estimate D2E/DX2                !
 ! A125  A(66,63,67)           107.9685         estimate D2E/DX2                !
 ! A126  A(66,63,68)           107.9881         estimate D2E/DX2                !
 ! A127  A(67,63,68)           108.2626         estimate D2E/DX2                !
 ! A128  A(62,64,69)           111.6902         estimate D2E/DX2                !
 ! A129  A(62,64,70)           109.2351         estimate D2E/DX2                !
 ! A130  A(62,64,71)           112.356          estimate D2E/DX2                !
 ! A131  A(69,64,70)           108.4124         estimate D2E/DX2                !
 ! A132  A(69,64,71)           107.8916         estimate D2E/DX2                !
 ! A133  A(70,64,71)           107.0787         estimate D2E/DX2                !
 ! A134  A(62,65,72)           110.0069         estimate D2E/DX2                !
 ! A135  A(62,65,73)           111.6799         estimate D2E/DX2                !
 ! A136  A(62,65,74)           111.3469         estimate D2E/DX2                !
 ! A137  A(72,65,73)           107.683          estimate D2E/DX2                !
 ! A138  A(72,65,74)           107.6934         estimate D2E/DX2                !
 ! A139  A(73,65,74)           108.274          estimate D2E/DX2                !
 ! A140  A(50,75,61)           145.5772         estimate D2E/DX2                !
 ! A141  A(61,76,77)           134.7575         estimate D2E/DX2                !
 ! A142  A(61,76,78)           132.8121         estimate D2E/DX2                !
 ! A143  A(77,76,78)            92.381          estimate D2E/DX2                !
 ! A144  A(76,77,79)            92.8256         estimate D2E/DX2                !
 ! A145  A(76,77,82)           132.3805         estimate D2E/DX2                !
 ! A146  A(79,77,82)           134.7837         estimate D2E/DX2                !
 ! A147  A(76,78,79)            87.7245         estimate D2E/DX2                !
 ! A148  A(76,78,81)           135.3201         estimate D2E/DX2                !
 ! A149  A(79,78,81)           136.942          estimate D2E/DX2                !
 ! A150  A(77,79,78)            86.9037         estimate D2E/DX2                !
 ! A151  A(77,79,80)           135.9708         estimate D2E/DX2                !
 ! A152  A(78,79,80)           136.9338         estimate D2E/DX2                !
 ! A153  A(77,82,83)           116.5732         estimate D2E/DX2                !
 ! A154  A(77,82,84)           124.5928         estimate D2E/DX2                !
 ! A155  A(83,82,84)           117.0039         estimate D2E/DX2                !
 ! A156  A(50,83,82)           156.3331         estimate D2E/DX2                !
 ! A157  A(82,84,85)           119.0943         estimate D2E/DX2                !
 ! A158  A(82,84,86)           120.9134         estimate D2E/DX2                !
 ! A159  A(85,84,86)           119.9021         estimate D2E/DX2                !
 ! A160  A(84,85,87)           119.597          estimate D2E/DX2                !
 ! A161  A(84,85,88)           119.9551         estimate D2E/DX2                !
 ! A162  A(87,85,88)           120.434          estimate D2E/DX2                !
 ! A163  A(84,86,89)           119.5974         estimate D2E/DX2                !
 ! A164  A(84,86,90)           120.3513         estimate D2E/DX2                !
 ! A165  A(89,86,90)           120.0086         estimate D2E/DX2                !
 ! A166  A(85,87,91)           121.0365         estimate D2E/DX2                !
 ! A167  A(85,87,94)           120.6272         estimate D2E/DX2                !
 ! A168  A(91,87,94)           118.3337         estimate D2E/DX2                !
 ! A169  A(86,89,91)           121.1107         estimate D2E/DX2                !
 ! A170  A(86,89,93)           117.9544         estimate D2E/DX2                !
 ! A171  A(91,89,93)           120.5199         estimate D2E/DX2                !
 ! A172  A(87,91,89)           118.7538         estimate D2E/DX2                !
 ! A173  A(87,91,92)           120.6593         estimate D2E/DX2                !
 ! A174  A(89,91,92)           120.5677         estimate D2E/DX2                !
 ! A175  A(89,93,95)           112.2773         estimate D2E/DX2                !
 ! A176  A(89,93,96)           112.153          estimate D2E/DX2                !
 ! A177  A(89,93,97)           110.0303         estimate D2E/DX2                !
 ! A178  A(95,93,96)           107.9376         estimate D2E/DX2                !
 ! A179  A(95,93,97)           106.9863         estimate D2E/DX2                !
 ! A180  A(96,93,97)           107.1926         estimate D2E/DX2                !
 ! A181  A(87,94,98)           111.7703         estimate D2E/DX2                !
 ! A182  A(87,94,99)           110.7464         estimate D2E/DX2                !
 ! A183  A(87,94,100)          112.4409         estimate D2E/DX2                !
 ! A184  A(98,94,99)           106.5708         estimate D2E/DX2                !
 ! A185  A(98,94,100)          107.3512         estimate D2E/DX2                !
 ! A186  A(99,94,100)          107.676          estimate D2E/DX2                !
 ! A187  A(57,101,102)         127.2301         estimate D2E/DX2                !
 ! A188  A(57,101,103)         120.0085         estimate D2E/DX2                !
 ! A189  A(102,101,103)        112.6451         estimate D2E/DX2                !
 ! A190  A(101,102,104)        103.3478         estimate D2E/DX2                !
 ! A191  A(101,102,105)        110.944          estimate D2E/DX2                !
 ! A192  A(101,102,109)        110.064          estimate D2E/DX2                !
 ! A193  A(104,102,105)        111.7444         estimate D2E/DX2                !
 ! A194  A(104,102,109)        111.0309         estimate D2E/DX2                !
 ! A195  A(105,102,109)        109.5833         estimate D2E/DX2                !
 ! A196  A(101,103,106)        102.0018         estimate D2E/DX2                !
 ! A197  A(101,103,112)        110.0363         estimate D2E/DX2                !
 ! A198  A(101,103,123)        110.5962         estimate D2E/DX2                !
 ! A199  A(106,103,112)        110.6726         estimate D2E/DX2                !
 ! A200  A(106,103,123)        109.8625         estimate D2E/DX2                !
 ! A201  A(112,103,123)        113.118          estimate D2E/DX2                !
 ! A202  A(102,104,106)        103.0156         estimate D2E/DX2                !
 ! A203  A(102,104,107)        109.7948         estimate D2E/DX2                !
 ! A204  A(102,104,110)        112.0669         estimate D2E/DX2                !
 ! A205  A(106,104,107)        111.0935         estimate D2E/DX2                !
 ! A206  A(106,104,110)        112.9372         estimate D2E/DX2                !
 ! A207  A(107,104,110)        107.9056         estimate D2E/DX2                !
 ! A208  A(103,106,104)        105.3109         estimate D2E/DX2                !
 ! A209  A(103,106,108)        111.0626         estimate D2E/DX2                !
 ! A210  A(103,106,111)        109.0218         estimate D2E/DX2                !
 ! A211  A(104,106,108)        113.6607         estimate D2E/DX2                !
 ! A212  A(104,106,111)        109.7967         estimate D2E/DX2                !
 ! A213  A(108,106,111)        107.9155         estimate D2E/DX2                !
 ! A214  A(103,112,113)        121.3554         estimate D2E/DX2                !
 ! A215  A(103,112,114)        120.719          estimate D2E/DX2                !
 ! A216  A(113,112,114)        117.8663         estimate D2E/DX2                !
 ! A217  A(112,113,115)        121.3723         estimate D2E/DX2                !
 ! A218  A(112,113,116)        120.3657         estimate D2E/DX2                !
 ! A219  A(115,113,116)        118.2577         estimate D2E/DX2                !
 ! A220  A(112,114,117)        121.7356         estimate D2E/DX2                !
 ! A221  A(112,114,118)        119.9064         estimate D2E/DX2                !
 ! A222  A(117,114,118)        118.3532         estimate D2E/DX2                !
 ! A223  A(113,115,119)        118.9391         estimate D2E/DX2                !
 ! A224  A(113,115,120)        121.4093         estimate D2E/DX2                !
 ! A225  A(119,115,120)        119.6494         estimate D2E/DX2                !
 ! A226  A(114,117,119)        118.4811         estimate D2E/DX2                !
 ! A227  A(114,117,121)        121.2314         estimate D2E/DX2                !
 ! A228  A(119,117,121)        120.2867         estimate D2E/DX2                !
 ! A229  A(115,119,117)        121.5916         estimate D2E/DX2                !
 ! A230  A(115,119,122)        118.935          estimate D2E/DX2                !
 ! A231  A(117,119,122)        119.4721         estimate D2E/DX2                !
 ! A232  A(103,123,124)        110.5229         estimate D2E/DX2                !
 ! A233  A(103,123,125)        108.9815         estimate D2E/DX2                !
 ! A234  A(103,123,126)        111.4357         estimate D2E/DX2                !
 ! A235  A(124,123,125)        107.5186         estimate D2E/DX2                !
 ! A236  A(124,123,126)        109.5658         estimate D2E/DX2                !
 ! A237  A(125,123,126)        108.7144         estimate D2E/DX2                !
 ! A238  L(2,48,51,7,-1)       182.8462         estimate D2E/DX2                !
 ! A239  L(49,50,75,83,-1)     184.8418         estimate D2E/DX2                !
 ! A240  L(2,48,51,7,-2)       177.8257         estimate D2E/DX2                !
 ! A241  L(49,50,75,83,-2)     193.9331         estimate D2E/DX2                !
 ! D1    D(6,1,2,3)             -8.8442         estimate D2E/DX2                !
 ! D2    D(6,1,2,25)          -161.013          estimate D2E/DX2                !
 ! D3    D(6,1,2,48)            91.6675         estimate D2E/DX2                !
 ! D4    D(21,1,2,3)           176.3504         estimate D2E/DX2                !
 ! D5    D(21,1,2,25)           24.1817         estimate D2E/DX2                !
 ! D6    D(21,1,2,48)          -83.1378         estimate D2E/DX2                !
 ! D7    D(2,1,6,4)              6.6409         estimate D2E/DX2                !
 ! D8    D(2,1,6,7)           -172.903          estimate D2E/DX2                !
 ! D9    D(21,1,6,4)          -178.3235         estimate D2E/DX2                !
 ! D10   D(21,1,6,7)             2.1326         estimate D2E/DX2                !
 ! D11   D(2,1,21,22)          -10.2799         estimate D2E/DX2                !
 ! D12   D(2,1,21,23)          110.655          estimate D2E/DX2                !
 ! D13   D(2,1,21,24)         -132.6668         estimate D2E/DX2                !
 ! D14   D(6,1,21,22)          175.5909         estimate D2E/DX2                !
 ! D15   D(6,1,21,23)          -63.4742         estimate D2E/DX2                !
 ! D16   D(6,1,21,24)           53.204          estimate D2E/DX2                !
 ! D17   D(1,2,3,4)              7.7894         estimate D2E/DX2                !
 ! D18   D(1,2,3,5)           -110.9621         estimate D2E/DX2                !
 ! D19   D(1,2,3,47)           130.4419         estimate D2E/DX2                !
 ! D20   D(25,2,3,4)           161.6333         estimate D2E/DX2                !
 ! D21   D(25,2,3,5)            42.8818         estimate D2E/DX2                !
 ! D22   D(25,2,3,47)          -75.7142         estimate D2E/DX2                !
 ! D23   D(48,2,3,4)           -82.2029         estimate D2E/DX2                !
 ! D24   D(48,2,3,5)           159.0457         estimate D2E/DX2                !
 ! D25   D(48,2,3,47)           40.4496         estimate D2E/DX2                !
 ! D26   D(1,2,25,26)           44.6531         estimate D2E/DX2                !
 ! D27   D(1,2,25,27)         -137.9722         estimate D2E/DX2                !
 ! D28   D(3,2,25,26)         -103.9467         estimate D2E/DX2                !
 ! D29   D(3,2,25,27)           73.4279         estimate D2E/DX2                !
 ! D30   D(48,2,25,26)         142.3956         estimate D2E/DX2                !
 ! D31   D(48,2,25,27)         -40.2298         estimate D2E/DX2                !
 ! D32   D(1,2,51,49)         -109.5981         estimate D2E/DX2                !
 ! D33   D(3,2,51,49)           -2.8518         estimate D2E/DX2                !
 ! D34   D(25,2,51,49)         123.8651         estimate D2E/DX2                !
 ! D35   D(2,3,4,6)             -3.8846         estimate D2E/DX2                !
 ! D36   D(2,3,4,36)           174.5074         estimate D2E/DX2                !
 ! D37   D(5,3,4,6)            113.4529         estimate D2E/DX2                !
 ! D38   D(5,3,4,36)           -68.155          estimate D2E/DX2                !
 ! D39   D(47,3,4,6)          -127.1837         estimate D2E/DX2                !
 ! D40   D(47,3,4,36)           51.2083         estimate D2E/DX2                !
 ! D41   D(3,4,6,1)             -1.3335         estimate D2E/DX2                !
 ! D42   D(3,4,6,7)            178.1792         estimate D2E/DX2                !
 ! D43   D(36,4,6,1)          -179.6629         estimate D2E/DX2                !
 ! D44   D(36,4,6,7)            -0.1503         estimate D2E/DX2                !
 ! D45   D(3,4,36,37)          -29.0564         estimate D2E/DX2                !
 ! D46   D(3,4,36,38)          150.8628         estimate D2E/DX2                !
 ! D47   D(6,4,36,37)          149.0244         estimate D2E/DX2                !
 ! D48   D(6,4,36,38)          -31.0563         estimate D2E/DX2                !
 ! D49   D(1,6,7,8)             98.142          estimate D2E/DX2                !
 ! D50   D(4,6,7,8)            -81.3174         estimate D2E/DX2                !
 ! D51   D(6,7,8,9)             44.4369         estimate D2E/DX2                !
 ! D52   D(6,7,8,13)           163.5094         estimate D2E/DX2                !
 ! D53   D(6,7,8,17)           -76.6284         estimate D2E/DX2                !
 ! D54   D(7,8,9,10)            72.7939         estimate D2E/DX2                !
 ! D55   D(7,8,9,11)          -167.4112         estimate D2E/DX2                !
 ! D56   D(7,8,9,12)           -48.6146         estimate D2E/DX2                !
 ! D57   D(13,8,9,10)          -40.4487         estimate D2E/DX2                !
 ! D58   D(13,8,9,11)           79.3463         estimate D2E/DX2                !
 ! D59   D(13,8,9,12)         -161.8571         estimate D2E/DX2                !
 ! D60   D(17,8,9,10)         -168.034          estimate D2E/DX2                !
 ! D61   D(17,8,9,11)          -48.2391         estimate D2E/DX2                !
 ! D62   D(17,8,9,12)           70.5575         estimate D2E/DX2                !
 ! D63   D(7,8,13,14)           62.6448         estimate D2E/DX2                !
 ! D64   D(7,8,13,15)         -177.5217         estimate D2E/DX2                !
 ! D65   D(7,8,13,16)          -58.0756         estimate D2E/DX2                !
 ! D66   D(9,8,13,14)         -179.2301         estimate D2E/DX2                !
 ! D67   D(9,8,13,15)          -59.3966         estimate D2E/DX2                !
 ! D68   D(9,8,13,16)           60.0495         estimate D2E/DX2                !
 ! D69   D(17,8,13,14)         -53.0859         estimate D2E/DX2                !
 ! D70   D(17,8,13,15)          66.7477         estimate D2E/DX2                !
 ! D71   D(17,8,13,16)        -173.8063         estimate D2E/DX2                !
 ! D72   D(7,8,17,18)         -174.7637         estimate D2E/DX2                !
 ! D73   D(7,8,17,19)          -54.1233         estimate D2E/DX2                !
 ! D74   D(7,8,17,20)           67.3404         estimate D2E/DX2                !
 ! D75   D(9,8,17,18)           64.4414         estimate D2E/DX2                !
 ! D76   D(9,8,17,19)         -174.9182         estimate D2E/DX2                !
 ! D77   D(9,8,17,20)          -53.4546         estimate D2E/DX2                !
 ! D78   D(13,8,17,18)         -62.1838         estimate D2E/DX2                !
 ! D79   D(13,8,17,19)          58.4565         estimate D2E/DX2                !
 ! D80   D(13,8,17,20)         179.9202         estimate D2E/DX2                !
 ! D81   D(2,25,26,28)         177.6361         estimate D2E/DX2                !
 ! D82   D(2,25,26,29)          -1.5852         estimate D2E/DX2                !
 ! D83   D(27,25,26,28)          0.2098         estimate D2E/DX2                !
 ! D84   D(27,25,26,29)       -179.0115         estimate D2E/DX2                !
 ! D85   D(2,25,27,30)        -177.6285         estimate D2E/DX2                !
 ! D86   D(2,25,27,31)           3.3756         estimate D2E/DX2                !
 ! D87   D(26,25,27,30)         -0.2084         estimate D2E/DX2                !
 ! D88   D(26,25,27,31)       -179.2043         estimate D2E/DX2                !
 ! D89   D(25,26,28,32)         -0.0847         estimate D2E/DX2                !
 ! D90   D(25,26,28,33)        179.9711         estimate D2E/DX2                !
 ! D91   D(29,26,28,32)        179.1303         estimate D2E/DX2                !
 ! D92   D(29,26,28,33)         -0.8138         estimate D2E/DX2                !
 ! D93   D(25,27,30,32)          0.0824         estimate D2E/DX2                !
 ! D94   D(25,27,30,34)       -179.2385         estimate D2E/DX2                !
 ! D95   D(31,27,30,32)        179.0775         estimate D2E/DX2                !
 ! D96   D(31,27,30,34)         -0.2435         estimate D2E/DX2                !
 ! D97   D(26,28,32,30)         -0.0451         estimate D2E/DX2                !
 ! D98   D(26,28,32,35)        179.7354         estimate D2E/DX2                !
 ! D99   D(33,28,32,30)        179.8988         estimate D2E/DX2                !
 ! D100  D(33,28,32,35)         -0.3206         estimate D2E/DX2                !
 ! D101  D(27,30,32,28)          0.0464         estimate D2E/DX2                !
 ! D102  D(27,30,32,35)       -179.7342         estimate D2E/DX2                !
 ! D103  D(34,30,32,28)        179.364          estimate D2E/DX2                !
 ! D104  D(34,30,32,35)         -0.4165         estimate D2E/DX2                !
 ! D105  D(4,36,37,39)        -179.2343         estimate D2E/DX2                !
 ! D106  D(4,36,37,40)          -1.9068         estimate D2E/DX2                !
 ! D107  D(38,36,37,39)          0.845          estimate D2E/DX2                !
 ! D108  D(38,36,37,40)        178.1724         estimate D2E/DX2                !
 ! D109  D(4,36,38,41)         179.7573         estimate D2E/DX2                !
 ! D110  D(4,36,38,42)          -0.4649         estimate D2E/DX2                !
 ! D111  D(37,36,38,41)         -0.3216         estimate D2E/DX2                !
 ! D112  D(37,36,38,42)        179.4561         estimate D2E/DX2                !
 ! D113  D(36,37,39,43)         -0.7016         estimate D2E/DX2                !
 ! D114  D(36,37,39,44)        178.9317         estimate D2E/DX2                !
 ! D115  D(40,37,39,43)       -178.0286         estimate D2E/DX2                !
 ! D116  D(40,37,39,44)          1.6047         estimate D2E/DX2                !
 ! D117  D(36,38,41,43)         -0.348          estimate D2E/DX2                !
 ! D118  D(36,38,41,45)        179.6629         estimate D2E/DX2                !
 ! D119  D(42,38,41,43)        179.8768         estimate D2E/DX2                !
 ! D120  D(42,38,41,45)         -0.1123         estimate D2E/DX2                !
 ! D121  D(37,39,43,41)          0.0207         estimate D2E/DX2                !
 ! D122  D(37,39,43,46)        179.9993         estimate D2E/DX2                !
 ! D123  D(44,39,43,41)       -179.6108         estimate D2E/DX2                !
 ! D124  D(44,39,43,46)          0.3678         estimate D2E/DX2                !
 ! D125  D(38,41,43,39)          0.5022         estimate D2E/DX2                !
 ! D126  D(38,41,43,46)       -179.4764         estimate D2E/DX2                !
 ! D127  D(45,41,43,39)       -179.5087         estimate D2E/DX2                !
 ! D128  D(45,41,43,46)          0.5127         estimate D2E/DX2                !
 ! D129  D(51,49,50,83)         25.046          estimate D2E/DX2                !
 ! D130  D(52,49,50,83)        158.7565         estimate D2E/DX2                !
 ! D131  D(53,49,50,83)        -81.5761         estimate D2E/DX2                !
 ! D132  D(50,49,51,48)        137.1096         estimate D2E/DX2                !
 ! D133  D(52,49,51,48)          0.551          estimate D2E/DX2                !
 ! D134  D(53,49,51,48)       -113.3713         estimate D2E/DX2                !
 ! D135  D(50,49,53,54)        178.3095         estimate D2E/DX2                !
 ! D136  D(50,49,53,55)         58.4312         estimate D2E/DX2                !
 ! D137  D(50,49,53,56)        -61.5792         estimate D2E/DX2                !
 ! D138  D(51,49,53,54)         65.0155         estimate D2E/DX2                !
 ! D139  D(51,49,53,55)        -54.8628         estimate D2E/DX2                !
 ! D140  D(51,49,53,56)       -174.8732         estimate D2E/DX2                !
 ! D141  D(52,49,53,54)        -53.9687         estimate D2E/DX2                !
 ! D142  D(52,49,53,55)       -173.8469         estimate D2E/DX2                !
 ! D143  D(52,49,53,56)         66.1427         estimate D2E/DX2                !
 ! D144  D(51,49,75,61)         71.0111         estimate D2E/DX2                !
 ! D145  D(52,49,75,61)       -161.4231         estimate D2E/DX2                !
 ! D146  D(53,49,75,61)        -38.9866         estimate D2E/DX2                !
 ! D147  D(83,50,75,61)         44.2249         estimate D2E/DX2                !
 ! D148  D(49,50,83,82)       -132.9808         estimate D2E/DX2                !
 ! D149  D(75,50,83,82)         33.0861         estimate D2E/DX2                !
 ! D150  D(58,57,59,60)       -160.4209         estimate D2E/DX2                !
 ! D151  D(58,57,59,61)        -45.0945         estimate D2E/DX2                !
 ! D152  D(58,57,59,62)         78.1205         estimate D2E/DX2                !
 ! D153  D(101,57,59,60)        16.6844         estimate D2E/DX2                !
 ! D154  D(101,57,59,61)       132.0109         estimate D2E/DX2                !
 ! D155  D(101,57,59,62)      -104.7741         estimate D2E/DX2                !
 ! D156  D(58,57,101,102)      178.3455         estimate D2E/DX2                !
 ! D157  D(58,57,101,103)        2.5702         estimate D2E/DX2                !
 ! D158  D(59,57,101,102)        1.3488         estimate D2E/DX2                !
 ! D159  D(59,57,101,103)     -174.4265         estimate D2E/DX2                !
 ! D160  D(57,59,61,75)         69.8841         estimate D2E/DX2                !
 ! D161  D(57,59,61,76)        -71.311          estimate D2E/DX2                !
 ! D162  D(60,59,61,75)       -171.7987         estimate D2E/DX2                !
 ! D163  D(60,59,61,76)         47.0062         estimate D2E/DX2                !
 ! D164  D(62,59,61,75)        -54.744          estimate D2E/DX2                !
 ! D165  D(62,59,61,76)        164.0609         estimate D2E/DX2                !
 ! D166  D(57,59,62,63)        178.2002         estimate D2E/DX2                !
 ! D167  D(57,59,62,64)        -60.8721         estimate D2E/DX2                !
 ! D168  D(57,59,62,65)         59.8233         estimate D2E/DX2                !
 ! D169  D(60,59,62,63)         55.1372         estimate D2E/DX2                !
 ! D170  D(60,59,62,64)        176.0649         estimate D2E/DX2                !
 ! D171  D(60,59,62,65)        -63.2397         estimate D2E/DX2                !
 ! D172  D(61,59,62,63)        -60.9176         estimate D2E/DX2                !
 ! D173  D(61,59,62,64)         60.0102         estimate D2E/DX2                !
 ! D174  D(61,59,62,65)       -179.2944         estimate D2E/DX2                !
 ! D175  D(59,61,75,50)        159.9295         estimate D2E/DX2                !
 ! D176  D(76,61,75,50)        -57.8633         estimate D2E/DX2                !
 ! D177  D(59,61,76,77)        157.7329         estimate D2E/DX2                !
 ! D178  D(59,61,76,78)        -18.9703         estimate D2E/DX2                !
 ! D179  D(75,61,76,77)         16.7166         estimate D2E/DX2                !
 ! D180  D(75,61,76,78)       -159.9866         estimate D2E/DX2                !
 ! D181  D(59,62,63,66)        -58.5646         estimate D2E/DX2                !
 ! D182  D(59,62,63,67)         61.7547         estimate D2E/DX2                !
 ! D183  D(59,62,63,68)       -178.2296         estimate D2E/DX2                !
 ! D184  D(64,62,63,66)        178.736          estimate D2E/DX2                !
 ! D185  D(64,62,63,67)        -60.9447         estimate D2E/DX2                !
 ! D186  D(64,62,63,68)         59.0709         estimate D2E/DX2                !
 ! D187  D(65,62,63,66)         59.2696         estimate D2E/DX2                !
 ! D188  D(65,62,63,67)        179.5889         estimate D2E/DX2                !
 ! D189  D(65,62,63,68)        -60.3954         estimate D2E/DX2                !
 ! D190  D(59,62,64,69)         60.5627         estimate D2E/DX2                !
 ! D191  D(59,62,64,70)       -179.5163         estimate D2E/DX2                !
 ! D192  D(59,62,64,71)        -60.842          estimate D2E/DX2                !
 ! D193  D(63,62,64,69)       -179.3143         estimate D2E/DX2                !
 ! D194  D(63,62,64,70)        -59.3933         estimate D2E/DX2                !
 ! D195  D(63,62,64,71)         59.281          estimate D2E/DX2                !
 ! D196  D(65,62,64,69)        -59.7422         estimate D2E/DX2                !
 ! D197  D(65,62,64,70)         60.1787         estimate D2E/DX2                !
 ! D198  D(65,62,64,71)        178.8531         estimate D2E/DX2                !
 ! D199  D(59,62,65,72)        178.0005         estimate D2E/DX2                !
 ! D200  D(59,62,65,73)        -62.487          estimate D2E/DX2                !
 ! D201  D(59,62,65,74)         58.6882         estimate D2E/DX2                !
 ! D202  D(63,62,65,72)         60.3834         estimate D2E/DX2                !
 ! D203  D(63,62,65,73)        179.8959         estimate D2E/DX2                !
 ! D204  D(63,62,65,74)        -58.9289         estimate D2E/DX2                !
 ! D205  D(64,62,65,72)        -59.3128         estimate D2E/DX2                !
 ! D206  D(64,62,65,73)         60.1998         estimate D2E/DX2                !
 ! D207  D(64,62,65,74)       -178.625          estimate D2E/DX2                !
 ! D208  D(61,76,77,79)       -174.3787         estimate D2E/DX2                !
 ! D209  D(61,76,77,82)          6.6824         estimate D2E/DX2                !
 ! D210  D(78,76,77,79)          3.2014         estimate D2E/DX2                !
 ! D211  D(78,76,77,82)       -175.7375         estimate D2E/DX2                !
 ! D212  D(61,76,78,79)        174.5563         estimate D2E/DX2                !
 ! D213  D(61,76,78,81)         -4.2207         estimate D2E/DX2                !
 ! D214  D(77,76,78,79)         -3.1013         estimate D2E/DX2                !
 ! D215  D(77,76,78,81)        178.1217         estimate D2E/DX2                !
 ! D216  D(76,77,79,78)         -3.0929         estimate D2E/DX2                !
 ! D217  D(76,77,79,80)        172.2605         estimate D2E/DX2                !
 ! D218  D(82,77,79,78)        175.8028         estimate D2E/DX2                !
 ! D219  D(82,77,79,80)         -8.8438         estimate D2E/DX2                !
 ! D220  D(76,77,82,83)          7.0222         estimate D2E/DX2                !
 ! D221  D(76,77,82,84)       -157.0619         estimate D2E/DX2                !
 ! D222  D(79,77,82,83)       -171.4845         estimate D2E/DX2                !
 ! D223  D(79,77,82,84)         24.4314         estimate D2E/DX2                !
 ! D224  D(76,78,79,77)          2.9155         estimate D2E/DX2                !
 ! D225  D(76,78,79,80)       -172.3548         estimate D2E/DX2                !
 ! D226  D(81,78,79,77)       -178.344          estimate D2E/DX2                !
 ! D227  D(81,78,79,80)          6.3857         estimate D2E/DX2                !
 ! D228  D(77,82,83,50)        -45.669          estimate D2E/DX2                !
 ! D229  D(84,82,83,50)        119.6541         estimate D2E/DX2                !
 ! D230  D(77,82,84,85)       -155.7821         estimate D2E/DX2                !
 ! D231  D(77,82,84,86)         27.675          estimate D2E/DX2                !
 ! D232  D(83,82,84,85)         40.1959         estimate D2E/DX2                !
 ! D233  D(83,82,84,86)       -136.347          estimate D2E/DX2                !
 ! D234  D(82,84,85,87)       -176.7234         estimate D2E/DX2                !
 ! D235  D(82,84,85,88)          1.9263         estimate D2E/DX2                !
 ! D236  D(86,84,85,87)         -0.1448         estimate D2E/DX2                !
 ! D237  D(86,84,85,88)        178.5049         estimate D2E/DX2                !
 ! D238  D(82,84,86,89)        176.4244         estimate D2E/DX2                !
 ! D239  D(82,84,86,90)         -1.2013         estimate D2E/DX2                !
 ! D240  D(85,84,86,89)         -0.0908         estimate D2E/DX2                !
 ! D241  D(85,84,86,90)       -177.7165         estimate D2E/DX2                !
 ! D242  D(84,85,87,91)         -0.0028         estimate D2E/DX2                !
 ! D243  D(84,85,87,94)        179.4126         estimate D2E/DX2                !
 ! D244  D(88,85,87,91)       -178.6459         estimate D2E/DX2                !
 ! D245  D(88,85,87,94)          0.7695         estimate D2E/DX2                !
 ! D246  D(84,86,89,91)          0.4826         estimate D2E/DX2                !
 ! D247  D(84,86,89,93)       -172.1598         estimate D2E/DX2                !
 ! D248  D(90,86,89,91)        178.1166         estimate D2E/DX2                !
 ! D249  D(90,86,89,93)          5.4741         estimate D2E/DX2                !
 ! D250  D(85,87,91,89)          0.382          estimate D2E/DX2                !
 ! D251  D(85,87,91,92)        178.7953         estimate D2E/DX2                !
 ! D252  D(94,87,91,89)       -179.0465         estimate D2E/DX2                !
 ! D253  D(94,87,91,92)         -0.6332         estimate D2E/DX2                !
 ! D254  D(85,87,94,98)        113.8762         estimate D2E/DX2                !
 ! D255  D(85,87,94,99)       -127.4595         estimate D2E/DX2                !
 ! D256  D(85,87,94,100)        -6.9465         estimate D2E/DX2                !
 ! D257  D(91,87,94,98)        -66.6929         estimate D2E/DX2                !
 ! D258  D(91,87,94,99)         51.9714         estimate D2E/DX2                !
 ! D259  D(91,87,94,100)       172.4844         estimate D2E/DX2                !
 ! D260  D(86,89,91,87)         -0.6237         estimate D2E/DX2                !
 ! D261  D(86,89,91,92)       -179.0386         estimate D2E/DX2                !
 ! D262  D(93,89,91,87)        171.8309         estimate D2E/DX2                !
 ! D263  D(93,89,91,92)         -6.584          estimate D2E/DX2                !
 ! D264  D(86,89,93,95)       -165.9699         estimate D2E/DX2                !
 ! D265  D(86,89,93,96)        -44.2249         estimate D2E/DX2                !
 ! D266  D(86,89,93,97)         74.9923         estimate D2E/DX2                !
 ! D267  D(91,89,93,95)         21.3423         estimate D2E/DX2                !
 ! D268  D(91,89,93,96)        143.0874         estimate D2E/DX2                !
 ! D269  D(91,89,93,97)        -97.6955         estimate D2E/DX2                !
 ! D270  D(57,101,102,104)    -156.9366         estimate D2E/DX2                !
 ! D271  D(57,101,102,105)     -37.0357         estimate D2E/DX2                !
 ! D272  D(57,101,102,109)      84.4221         estimate D2E/DX2                !
 ! D273  D(103,101,102,104)     19.0999         estimate D2E/DX2                !
 ! D274  D(103,101,102,105)    139.0008         estimate D2E/DX2                !
[...]
 04,-0.00004195,-0.00004496,-0.00000436,0.00000781,-0.00000230,-0.00000
 449,0.00001059,0.00006390,0.00001010,0.00000541,-0.00005068,-0.0000119
 6,0.00000543,-0.00002835,0.00000433,0.00004011,-0.00000617,-0.00000228
 ,-0.00000290,-0.00000487,-0.00000352,-0.00001965,0.00002283,0.00001246
 ,0.00000398,-0.00000210,-0.00000154,-0.00000286,-0.00000938,-0.0000053
 5,0.00000438,0.00000115,0.00000064,-0.00000135,0.00000038,-0.00000036,
 -0.00000214,0.00000072,0.00000306,-0.00000009,0.00000393,0.00000043,0.
 00000422,-0.00000214,-0.00000113,0.00000009,0.00000021,-0.00000035,-0.
 00001541,0.00002710,-0.00000329,-0.00002934,0.00000528,-0.00000914,0.0
 0000843,-0.00001174,-0.00000431,0.00000276,-0.00000505,0.00000052,0.00
 000540,-0.00001052,0.00000665,0.00001000,-0.00000723,0.00000444,0.0000
 0934,-0.00000024,-0.00000076,0.00000735,0.00000138,0.00000395,-0.00023
 986,0.00015698,0.00174822,0.00015811,0.00016767,0.00011294,-0.01011212
 ,0.01404870,0.00590832,-0.00012331,0.00017475,0.00011522,-0.00004497,-
 0.00003069,0.00002441,-0.00048459,-0.00034642,0.00010668,0.00000330,0.
 00000609,-0.00007030,-0.00008118,0.00007909,0.00003243,-0.00001921,0.0
 0003502,-0.00000749,-0.00000821,-0.00005140,0.00000210,-0.00032864,-0.
 00023050,0.00012418,0.00059791,0.00266586,-0.00205635,0.00014552,0.000
 24923,-0.00101007,-0.00057136,0.00064022,0.00064697,-0.00002503,-0.000
 20442,0.00041694,-0.00001673,-0.00038806,0.00063873,-0.00015976,0.0000
 1987,-0.00014688,0.00008812,0.00000099,0.00007477,0.00005835,0.0000141
 0,-0.00012107,-0.00001562,0.00001833,-0.00000165,-0.00006823,0.0000354
 4,0.00002438,0.00001747,-0.00003965,0.00006550,0.07703082,-0.08776092,
 -0.11193473,0.01840453,-0.01936782,-0.01387665,-0.08418495,0.09099014,
 0.12072506,0.00001147,-0.00001153,0.00001116,0.00000102,0.00000112,-0.
 00001805,-0.00000016,0.00000481,0.00000076,0.00000440,-0.00001554,-0.0
 0000053,0.00000240,-0.00000093,0.00000088,-0.00004536,0.00000859,-0.00
 002083,0.00005847,0.00000527,-0.00003097,-0.00034348,0.00004740,0.0002
 4126,0.00005148,0.00001473,0.00006828,0.00001865,0.00001190,-0.0000075
 1,-0.00005468,-0.00008458,-0.00011156,0.00002796,0.00001626,-0.0000178
 7,-0.00015707,0.00007019,-0.00011895,0.00000692,0.00001807,-0.00002677
 ,-0.00000676,-0.00012480,0.00034091,0.00005618,-0.00001216,-0.00003876
 ,0.00001091,-0.00000235,-0.00002026,-0.00001577,0.00005129,-0.00002695
 ,0.00001859,-0.00001518,0.00000893,0.00001407,-0.00000626,-0.00000395,
 0.00000071,0.00000085,0.00000135,0.00000011,0.00000019,-0.00000035,-0.
 00000253,0.00000237,0.00000006,-0.00000076,0.00000044,-0.00000021,-0.0
 0000003,0.00000021,0.00000204,0.00000012,0.00000028,-0.00000004,-0.000
 00014,0.00000081,0.00000010,-0.00000033,0.00000069,-0.00000009,-0.0000
 0034,-0.00000043,0.00000018,0.00000018,-0.00000001,-0.00000032,-0.0000
 0024,-0.00000058,0.00000004,-0.00000027,0.00000040,0.00000010,-0.00000
 006,-0.00000025,0.00000003,-0.00000028,-0.00000028,-0.00000006,-0.0000
 0012,-0.00000023,0.00000006,-0.00000108,-0.00000070,-0.00000004,-0.000
 00190,-0.00000236,-0.00000471,0.00000336,0.00000300,-0.00000074,-0.000
 00240,0.00000102,-0.00000188,-0.00000117,-0.00000110,-0.00000127,0.000
 00260,-0.00000227,0.00001130,0.00000203,-0.00000281,0.00000322,-0.0000
 0412,0.00000184,0.00000082,0.00000120,0.00000110,-0.00000016,0.0000021
 4,0.00000249,-0.00000782,0.00000228,0.00000539,-0.00000092,-0.00000035
 ,-0.00000147,0.00000158,-0.00001920,-0.00000342,0.00001899,-0.00002483
 ,-0.00000962,-0.00000324,0.00001479,0.00001153,0.00000403,0.00001706,0
 .00000363,-0.00001149,0.00000919,0.00000813,0.00000287,-0.00000387,-0.
 00001133,-0.00000449,0.00000528,0.00000241,0.00000130,0.00000132,0.000
 00485,-0.00000019,-0.00000040,0.00000370,0.00000301,-0.00031888,-0.000
 10122,0.00012390,-0.00235882,0.00137144,-0.00307133,-0.00001041,-0.000
 16116,-0.00007355,0.00000035,0.00000632,0.00001052,0.00004091,0.000001
 82,0.00001904,-0.00000546,-0.00003053,-0.00003490,-0.00000344,0.000010
 08,0.00000308,-0.00000869,0.00000768,0.00005210,0.00003138,0.00001199,
 0.00005453,0.00000322,0.00000298,-0.00000758,-0.00000176,-0.00000175,-
 0.00000359,0.00000058,-0.00000007,0.00000491,0.00001874,-0.00002728,-0
 .00002637,0.00000252,0.00000709,0.00000435,-0.00000611,0.00000310,-0.0
 0002215,-0.00000041,0.00000846,0.00000289,-0.00005095,-0.00002914,-0.0
 0000279,0.00000349,0.00000943,-0.00004245,0.00000243,-0.00001246,-0.00
 001232,0.00002537,0.00002147,-0.00000146,-0.00004226,-0.00000894,0.000
 00064,-0.00009912,-0.00002195,0.00001330,0.00000871,0.00003048,0.00000
 669,0.00000628,-0.00002058,-0.00001204,0.00009338,-0.00001063,0.000006
 73,0.00004547,-0.00000122,-0.00000461,-0.00000052,-0.00000876,-0.00000
 091,-0.00001923,0.00002051,0.00001150,0.00000405,-0.00000229,-0.000002
 96,0.00000124,-0.00000633,-0.00000492,0.00000173,0.00000164,0.00000003
 ,-0.00000114,-0.00000049,0.00000021,-0.00000316,0.00000078,0.00000111,
 0.00000321,0.00000108,0.00000381,0.00000385,-0.00000183,-0.00000231,0.
 00000016,-0.00000042,0.00000041,0.00000455,0.00000350,0.00001529,-0.00
 001449,-0.00000325,0.00000018,0.00000038,-0.00000225,-0.00000394,-0.00
 000218,-0.00000095,-0.00000349,-0.00000153,0.00000046,-0.00000722,0.00
 000389,-0.00000063,0.00000059,0.00000570,0.00000146,-0.00000280,0.0000
 0370,0.00000186,0.00000117,-0.00004741,-0.00035916,0.00044193,-0.00003
 338,-0.00001366,-0.00000071,0.00174921,0.00057377,0.00032398,0.0001170
 1,-0.00015809,-0.00029713,-0.00000579,0.00000411,0.00000403,0.00045783
 ,0.00049442,0.00042434,-0.00002783,-0.00005528,0.00015055,0.00002157,-
 0.00016439,0.00001457,0.00001155,0.00000337,-0.00002286,-0.00000454,-0
 .00003351,0.00000125,0.00053773,-0.00016358,-0.00010650,0.00024863,0.0
 0061580,-0.00003923,0.00028053,0.00013126,0.00051230,0.00018599,-0.000
 17273,-0.00002673,0.00006164,0.00003152,-0.00016326,-0.00008139,0.0002
 3619,-0.00020823,-0.00007189,0.00006759,0.00002358,-0.00001406,0.00002
 619,-0.00001656,-0.00004224,-0.00000612,-0.00006731,0.00003367,0.00000
 248,0.00001040,-0.00000065,-0.00001659,-0.00000575,-0.00000212,0.00001
 021,-0.00001991,-0.28788007,-0.09791664,0.02180999,-0.00845885,-0.0025
 6269,0.00130997,-0.01498567,-0.00655128,0.00034407,0.31092681,-0.00001
 858,0.00002333,-0.00000986,0.00000586,-0.00000096,-0.00000200,-0.00000
 609,-0.00001444,-0.00000193,-0.00002341,0.00002085,-0.00000773,-0.0000
 0461,0.,-0.00000145,0.00012589,0.00001584,0.00007453,-0.00025407,-0.00
 008147,-0.00007068,0.00054445,0.00026946,0.00020212,-0.00000126,-0.000
 08586,-0.00002522,-0.00005371,-0.00004121,0.00002236,-0.00002274,0.000
 11926,-0.00004129,0.00002186,-0.00004339,-0.00001664,0.00009442,-0.000
 13880,-0.00003477,-0.00005210,-0.00001316,0.00001910,0.00004272,0.0001
 7995,-0.00025057,-0.00011781,-0.00001329,0.00008891,-0.00006624,-0.000
 02904,-0.00008226,0.00004332,-0.00007059,0.00006243,-0.00000778,-0.000
 00827,0.00001312,-0.00003180,0.00002330,-0.00001496,-0.00000645,-0.000
 00263,-0.00000256,-0.00000333,-0.00000091,-0.00000038,0.00000881,-0.00
 000910,0.00000567,0.00000670,-0.00000285,-0.00000136,0.00000200,-0.000
 00400,0.00000136,-0.00000247,-0.00000097,-0.00000110,-0.00000271,0.000
 00094,0.00000128,0.00000070,-0.00000127,-0.00000122,0.00000141,0.00000
 058,-0.00000160,-0.00000041,0.00000006,0.00000171,0.00000093,0.0000006
 5,0.00000094,-0.00000018,-0.00000059,-0.00000027,-0.00000033,0.0000009
 4,0.00000049,-0.00000031,0.00000049,-0.00000118,-0.00000094,0.00000089
 ,-0.00000045,0.00000154,0.00000213,-0.00000167,0.00000386,-0.00000051,
 0.00000266,-0.00000553,0.00000798,0.00000850,0.00000228,-0.00000107,0.
 00000056,-0.00000032,0.00000136,0.00000045,0.00000067,-0.00000242,-0.0
 0001116,0.00000701,0.00000423,-0.00000773,0.00000587,-0.00000202,-0.00
 000130,-0.00000221,-0.00000334,-0.00000141,-0.00000174,0.00000154,0.00
 000705,-0.00000185,-0.00000771,0.00000180,-0.00000214,0.00000269,-0.00
 000344,0.00000307,-0.00000010,0.00000530,0.00002091,0.00005300,0.00002
 956,-0.00001704,-0.00002406,-0.00001745,-0.00000415,-0.00002180,-0.000
 02227,-0.00000358,-0.00001935,-0.00000631,0.00000442,0.00001457,0.0000
 2850,-0.00000819,-0.00000346,-0.00000735,-0.00000219,-0.00000392,-0.00
 000616,0.00000259,-0.00001005,-0.00001564,-0.00233541,-0.00095267,0.00
 139873,0.00052291,0.00054333,-0.00206825,0.00028702,-0.00002999,-0.000
 12565,-0.00002995,-0.00000621,-0.00012190,0.00004086,0.00003276,-0.000
 06365,-0.00000826,0.00010261,-0.00000400,-0.00000417,-0.00005254,-0.00
 000299,0.00001153,-0.00002928,-0.00005822,-0.00005004,-0.00002049,-0.0
 0001712,-0.00000190,-0.00000009,0.00000870,0.00000505,0.00000366,0.000
 00631,-0.00000292,-0.00000842,-0.00001956,-0.00003462,0.00002833,-0.00
 002804,0.00000040,-0.00001489,-0.00001017,0.00001581,0.00000134,0.0000
 3267,0.00001453,-0.00000466,-0.00000869,0.00003709,0.00002275,0.000006
 89,0.00000730,-0.00000326,0.00000898,0.00003859,0.00001978,0.00006958,
 0.00004707,-0.00004894,-0.00000907,-0.00000662,0.00001543,0.00000544,-
 0.00015582,-0.00003647,0.00003667,0.00000797,-0.00001619,0.00000378,0.
 00000120,0.00001445,-0.00001874,0.00014038,0.00000556,-0.00001194,0.00
 001593,0.00001161,-0.00001691,0.00000720,0.00000264,0.00001604,-0.0000
 0590,0.00000074,0.00000356,0.00000685,-0.00000125,-0.00000252,0.000010
 69,0.00000586,-0.00000163,-0.00000916,0.00000182,0.00000055,-0.0000005
 5,-0.00000065,0.00000046,-0.00000033,-0.00000222,-0.00000569,0.0000046
 3,-0.00000735,0.00001029,-0.00000198,-0.00000115,-0.00000309,-0.000000
 37,-0.00000068,0.00000095,0.00005052,-0.00004326,0.00002521,0.00003549
 ,-0.00000631,0.00001595,-0.00001895,0.00001977,0.00000377,-0.00001689,
 0.00000587,-0.00000490,-0.00001624,0.00002130,-0.00002042,-0.00001231,
 0.00000909,-0.00000626,-0.00001051,0.00000077,-0.00000119,-0.00000911,
 -0.00000290,-0.00000686,0.00143001,0.00131246,-0.00049060,-0.00038541,
 -0.00029792,0.00001971,-0.02694470,-0.01185454,0.00073884,-0.00154494,
 -0.00036514,-0.00036485,0.00003982,0.00008862,0.00003653,0.00131048,-0
 .00385092,0.00387084,0.00002693,-0.00006164,0.00005160,-0.00028227,-0.
 00007655,-0.00008183,0.00003552,0.00004612,0.00001390,-0.00001258,-0.0
 0017351,0.00054262,0.00002079,0.00016180,0.00006488,-0.00117698,0.0014
 5720,0.00014489,0.00010494,-0.00004575,0.00004453,0.00044982,-0.000183
 56,0.00021008,0.00028836,-0.00012571,-0.00017831,-0.00021997,-0.000430
 60,-0.00052024,-0.00025839,0.00015252,0.00017842,-0.00004979,0.0000240
 3,-0.00005003,0.00005267,0.00008936,-0.00030062,-0.00001557,-0.0000316
 0,-0.00000208,-0.00002450,-0.00001277,-0.00000269,-0.00009162,0.000089
 86,0.00004054,-0.09415528,-0.08841841,0.00659912,-0.00318005,-0.002357
 97,0.00005044,0.02086824,0.00966982,-0.00071658,0.10491249,0.09553379,
 0.00000933,-0.00000843,0.00001691,0.00000892,0.00000267,-0.00006337,-0
 .00000416,-0.00000604,0.00000411,-0.00002075,-0.00001129,-0.00001029,0
 .00000028,-0.00000120,-0.00000122,0.00005351,0.00004840,0.00004440,-0.
 00016834,-0.00004543,-0.00017695,0.00013290,0.00009458,0.00082037,-0.0
 0004165,-0.00004645,-0.00009132,0.00001522,0.00003479,0.00001144,-0.00
 011727,-0.00008974,-0.00005100,0.00004026,-0.00001803,-0.00004356,0.00
 019958,0.00007975,-0.00032463,-0.00011465,0.00001374,0.00000216,0.0001
 8131,-0.00010403,-0.00008493,-0.00003781,-0.00000720,0.00000622,-0.000
 06534,-0.00004607,-0.00016025,-0.00002965,0.00010765,0.00004024,0.0000
 3664,-0.00003026,0.00000565,-0.00000410,0.00003347,-0.00002418,-0.0000
 0263,-0.00000175,0.00000178,-0.00000260,-0.00000060,-0.00000020,0.0000
 0192,-0.00000191,0.00000544,0.00000419,-0.00000207,-0.00000199,-0.0000
 0204,-0.00000158,0.00000447,0.00000003,-0.00000020,0.00000003,-0.00000
 286,0.00000390,0.00000342,-0.00000057,0.00000105,-0.00000014,-0.000000
 38,-0.00000043,-0.00000049,0.00000046,-0.00000030,-0.00000171,-0.00000
 082,-0.00000171,0.00000027,-0.00000101,0.00000076,-0.00000024,0.000000
 17,-0.00000048,-0.00000027,-0.00000130,-0.00000012,-0.00000050,0.,-0.0
 0000042,0.00000003,-0.00000019,0.00000169,-0.00000038,0.00000167,-0.00
 000561,-0.00000744,-0.00000045,0.00001625,0.00000848,-0.00000145,0.000
 00111,-0.00000713,-0.00000538,-0.00000201,-0.00000138,0.00000501,-0.00
 000849,0.00000939,0.00001122,-0.00000207,-0.00000219,-0.00000024,0.000
 00380,0.00000136,-0.00000254,-0.00000300,-0.00000120,0.00000048,0.0000
 0727,-0.00000796,0.00000013,0.00000023,0.00000143,-0.00000666,-0.00000
 133,0.00000039,-0.00007258,-0.00001409,0.00009321,-0.00017973,0.000020
 54,0.00007617,0.00012401,0.00001047,-0.00002032,0.00009324,-0.00002946
 ,-0.00009719,0.00004389,0.00000891,-0.00002173,-0.00003776,0.00000189,
 -0.00000253,0.00003375,0.00000515,0.00000314,0.00000778,-0.00000008,0.
 00000090,0.00001182,-0.00000720,-0.00000834,0.00358624,0.00198209,-0.0
 0270389,-0.00241875,-0.00134268,0.00122691,-0.00044916,0.00020191,0.00
 007029,0.00003955,0.00000283,0.00016306,0.00005596,-0.00037389,0.00009
 150,0.00008301,-0.00011073,0.00005377,-0.00003470,0.00005959,-0.000008
 44,-0.00002727,0.00004691,-0.00013044,-0.00002041,-0.00000270,-0.00004
 509,-0.00000493,-0.00000974,0.00001090,0.00000928,-0.00000304,-0.00000
 077,0.00000927,0.00001476,0.00003081,-0.00006310,-0.00010621,-0.000015
 07,0.00000633,0.00002256,0.00005585,0.00000549,-0.00001129,0.00003653,
 -0.00000544,0.00001378,0.00002220,0.00008824,-0.00000902,-0.00000149,-
 0.00000990,-0.00001526,0.00004376,-0.00007726,-0.00000374,-0.00007639,
 -0.00007350,0.00049433,0.00004809,-0.00015599,-0.00018389,-0.00000486,
 0.00009460,-0.00000021,-0.00002273,0.00003353,0.00023356,0.00005885,0.
 00001504,-0.00018380,-0.00007283,-0.00006250,-0.00005656,-0.00002214,0
 .00013829,-0.00001155,-0.00003813,-0.00000446,-0.00000710,0.00000976,-
 0.00007581,0.00007834,0.00005237,0.00002493,-0.00000792,-0.00001008,0.
 00000211,-0.00002172,-0.00002179,0.00000030,0.00000750,0.00000274,-0.0
 0000485,-0.00000010,0.00000019,-0.00000861,0.00000083,0.00000063,0.000
 00291,0.00000024,0.00001728,0.00001329,-0.00000995,-0.00001193,0.00000
 122,-0.00000104,0.00000169,0.00004116,0.00000846,0.00007390,-0.0000348
 0,0.00000022,0.00000714,-0.00000606,-0.00000488,-0.00001592,-0.0000179
 8,-0.00000734,-0.00001682,-0.00001389,0.00000936,-0.00003647,0.0000100
 7,-0.00000468,0.00000119,0.00001427,0.00000267,-0.00000929,0.00000782,
 -0.00000005,-0.00000146,-0.00186901,-0.00128217,0.00024870,0.00047407,
 0.00000113,-0.00019851,0.01663167,0.00579409,-0.00067013,0.00055751,0.
 00033793,0.00021022,-0.00011772,-0.00003971,0.00003656,-0.00030978,0.0
 0269216,-0.00057590,-0.00000638,0.00001629,-0.00006732,0.00037611,0.00
 060916,-0.00018466,-0.00015027,-0.00000274,0.00013576,-0.00003453,0.00
 004403,-0.00023573,-0.00031789,0.00004569,-0.00014566,-0.00004091,-0.0
 0095713,0.00000787,0.00011792,-0.00034539,0.00045440,-0.00024956,0.000
 02146,-0.00017199,-0.00004013,0.00021391,-0.00012686,-0.00028432,-0.00
 021243,-0.00034433,0.00005022,0.00002466,-0.00010288,0.00001212,0.0000
 5714,-0.00000371,-0.00000036,-0.00012504,0.00013105,0.00000172,-0.0000
 0128,0.00000403,0.00002644,0.00002760,0.00001895,-0.00005513,0.0000720
 4,-0.00001804,0.01881766,0.00537892,-0.05151724,-0.02843597,-0.0115738
 8,0.00419759,0.01567242,0.00733686,-0.00138048,-0.02163227,-0.00882312
 ,0.05153858\\-0.00000178,-0.00000093,-0.00000040,-0.00000194,0.0000002
 2,0.00000362,0.00000094,0.00000051,0.00000028,0.00000019,0.00000110,0.
 00000095,-0.00000028,0.00000030,0.00000029,-0.00000005,-0.00000158,0.0
 0000014,0.00000007,0.00000043,0.00000019,0.00000030,0.00000029,0.00000
 013,-0.00000009,-0.00000044,0.00000037,-0.00000003,0.00000051,0.000000
 11,0.00000004,0.00000004,0.00000028,0.00000014,0.00000016,0.00000032,-
 0.00000003,0.00000030,-0.00000029,0.,0.00000063,0.00000012,0.00000002,
 0.00000041,0.00000011,0.,0.00000037,0.00000027,0.00000048,-0.00000017,
 0.00000008,-0.00000022,0.00000012,-0.00000008,-0.00000007,0.00000034,-
 0.00000017,-0.00000023,0.00000008,-0.00000036,0.00000089,0.00000015,-0
 .00000006,-0.00000048,0.00000042,-0.00000025,-0.00000040,0.00000011,-0
 .00000010,0.00000006,0.00000011,-0.00000036,0.00000008,0.00000013,0.00
 000026,-0.00000005,0.00000013,0.00000033,-0.00000016,0.00000009,-0.000
 00036,0.00000008,-0.00000009,-0.00000038,-0.00000005,0.00000019,-0.000
 00031,-0.00000019,0.00000023,0.00000092,-0.00000005,-0.00000001,0.0000
 0013,0.00000071,-0.00000034,-0.00000027,-0.00000014,0.00000020,0.00000
 003,-0.00000012,-0.00000032,-0.00000046,-0.00000027,0.,-0.00000021,0.0
 0000017,0.00000016,0.00000069,0.00000016,0.00000063,0.00000027,-0.0000
 0073,0.00000118,-0.00000031,-0.00000024,-0.00000048,0.00000024,0.00000
 011,-0.00000006,0.00000069,0.00000060,-0.00000009,0.00000138,0.0000001
 0,0.00000016,0.00000018,0.00000032,-0.00000016,0.00000060,0.00000015,0
 .00000038,0.00000101,-0.00000014,0.00000040,0.00000022,0.00000002,0.00
 000038,0.00000073,0.00000004,-0.00000004,0.00000055,0.00000506,0.00000
 137,-0.00000728,-0.00000054,-0.00000068,0.00000014,-0.00000006,-0.0000
 0009,-0.00000007,-0.00000192,-0.00000064,0.00000342,0.00000026,-0.0000
 0002,0.00000023,-0.00000019,-0.00000010,-0.00000030,0.00000039,-0.0000
 0045,0.00000013,0.00000006,-0.00000067,0.00000021,-0.00000006,-0.00000
 054,0.00000032,-0.00000102,-0.00000036,0.00000068,0.00000071,0.0000003
 2,-0.00000067,0.00000011,-0.00000022,0.00000009,0.00000008,-0.00000022
 ,-0.00000006,-0.00000029,-0.00000023,0.00000029,0.00000066,-0.00000042
 ,-0.00000017,-0.00000048,-0.00000061,0.00000022,-0.00000076,-0.0000007
 0,0.00000065,-0.00000051,-0.00000029,0.00000055,0.00000002,-0.00000044
 ,0.00000007,0.00000029,-0.00000050,0.00000012,0.00000007,-0.00000024,0
 .00000038,0.00000006,-0.00000009,0.00000001,0.00000006,0.00000015,0.00
 000052,0.00000050,-0.00000031,0.00000027,-0.00000002,-0.00000038,0.000
 00028,0.00000005,-0.00000011,0.00000029,0.00000024,0.,-0.00000002,0.00
 000027,-0.00000008,-0.00000009,-0.00000039,-0.00000003,-0.00000004,0.0
 0000040,-0.00000037,-0.00000033,-0.00000027,-0.00000024,-0.00000040,0.
 00000016,0.00000021,-0.00000006,0.00000003,-0.00000076,-0.00000069,-0.
 00000021,-0.00000020,-0.00000020,0.00000071,-0.00000053,-0.00000136,-0
 .00000054,-0.00000022,0.00000131,-0.00000040,0.00000008,0.00000003,-0.
 00000006,-0.00000053,-0.00000061,-0.00000005,0.00000005,-0.00000032,0.
 00000011,0.00000011,0.00000003,-0.00000002,-0.00000016,-0.00000005,-0.
 00000056,-0.00000025,-0.00000083,0.00000020,0.00000002,-0.00000026,0.0
 0000071,-0.00000008,-0.00000045,-0.00000024,0.00000017,-0.00000042,-0.
 00000043,-0.00000021,-0.00000018,-0.00000023,-0.00000075,-0.00000085,-
 0.00000014,0.00000045,-0.00000058,0.00000033,0.00000026,-0.00000049,0.
 00000017,0.00000038,-0.00000058,-0.00000014,0.00000010,-0.00000039,-0.
 00000026,-0.00000066,-0.00000020,0.00000008,-0.00000006,-0.00000014,0.
 00000038,0.00000017,0.00000029,0.00000004,-0.00000052,-0.00000031,0.00
 000051,0.00000014,-0.00000021,-0.00000071,0.00000016,0.00000023,0.0000
 0005,-0.00000021,0.00000002,-0.00000023,-0.00000022,-0.00000048,0.0000
 0014,-0.00000020,-0.00000031,-0.00000002,0.00000039,-0.00000005,-0.000
 00012,0.00000016,0.00000009,0.00000050,0.00000007,-0.00000037,-0.00000
 007,0.00000019,-0.00000002,-0.00000032,0.00000060,-0.00000017,-0.00000
 023,0.00000023,0.00000022,0.00000035,-0.00000012,-0.00000090,0.0000002
 1,0.00000031,-0.00000024,-0.00000001,0.00000041,-0.00000008,0.00000029
 ,-0.00000023,-0.00000024,-0.00000020,0.,0.00000034,-0.00000034,0.00000
 040,0.,0.00000005,0.00000043,-0.00000034,-0.00000019,0.00000042,-0.000
 00067,0.00000011,0.00000015,-0.00000052,-0.00000080,0.00000056,0.00000
 055,0.,0.00000026,-0.00000006,0.00000035,-0.00000020,-0.00000012,0.000
 00043,0.00000032,0.00000010\\\@


 THE MOLECULE ALSO HAS A BODY.  WHEN THIS BODY IS HIT, THE MOLECULE
 FEELS HURT ALL OVER -- A. KITAIGORODSKI
 Job cpu time:       2 days 10 hours 17 minutes 25.6 seconds.
 Elapsed time:       0 days  3 hours 39 minutes 11.3 seconds.
 File lengths (MBytes):  RWF=  20183 Int=      0 D2E=      0 Chk=    120 Scr=      1
 Normal termination of Gaussian 16 at Tue Apr 28 11:44:51 2020.
