 Entering Gaussian System, Link 0=g16
 Input=propene_acetaldehyde_TS.gjf
 Output=propene_acetaldehyde_TS.out
 Initial command:
 /home/cwagen/sw/g16/g16/l1.exe "/scratch/users/cwagen/cwagen_propene_acetaldehyde_TS/Gau-50242.inp" -scrdir="/scratch/users/cwagen/cwagen_propene_acetaldehyde_TS/"
 Entering Link 1 = /home/cwagen/sw/g16/g16/l1.exe PID=     50243.
  
 Copyright (c) 1988,1990,1992,1993,1995,1998,2003,2009,2016,
            Gaussian, Inc.  All Rights Reserved.
  
 This is part of the Gaussian(R) 16 program.  It is based on
 the Gaussian(R) 09 system (copyright 2009, Gaussian, Inc.),
 the Gaussian(R) 03 system (copyright 2003, Gaussian, Inc.),
 the Gaussian(R) 98 system (copyright 1998, Gaussian, Inc.),
 the Gaussian(R) 94 system (copyright 1995, Gaussian, Inc.),
 the Gaussian 92(TM) system (copyright 1992, Gaussian, Inc.),
 the Gaussian 90(TM) system (copyright 1990, Gaussian, Inc.),
 the Gaussian 88(TM) system (copyright 1988, Gaussian, Inc.),
 the Gaussian 86(TM) system (copyright 1986, Carnegie Mellon
 University), and the Gaussian 82(TM) system (copyright 1983,
 Carnegie Mellon University). Gaussian is a federally registered
 trademark of Gaussian, Inc.
  
 This software contains proprietary and confidential information,
 including trade secrets, belonging to Gaussian, Inc.
  
 This software is provided under written license and may be
 used, copied, transmitted, or stored only in accord with that
 written license.
  
 The following legend is applicable only to US Government
 contracts under FAR:
  
                    RESTRICTED RIGHTS LEGEND
  
 Use, reproduction and disclosure by the US Government is
 subject to restrictions as set forth in subparagraphs (a)
 and (c) of the Commercial Computer Software - Restricted
 Rights clause in FAR 52.227-19.
  
 Gaussian, Inc.
 340 Quinnipiac St., Bldg. 40, Wallingford CT 06492
  
  
 ---------------------------------------------------------------
 Warning -- This program may not be used in any manner that
 competes with the business of Gaussian, Inc. or will provide
 assistance to any competitor of Gaussian, Inc.  The licensee
 of this program is prohibited from giving any competitor of
 Gaussian, Inc. access to this program.  By using this program,
 the user acknowledges that Gaussian, Inc. is engaged in the
 business of creating and licensing software in the field of
 computational chemistry and represents and warrants to the
 licensee that it is not a competitor of Gaussian, Inc. and that
 it will not use this program in any manner prohibited above.
 ---------------------------------------------------------------
  

 Cite this work as:
 Gaussian 16, Revision A.03,
 M. J. Frisch, G. W. Trucks, H. B. Schlegel, G. E. Scuseria, 
 M. A. Robb, J. R. Cheeseman, G. Scalmani, V. Barone, 
 G. A. Petersson, H. Nakatsuji, X. Li, M. Caricato, A. V. Marenich, 
 J. Bloino, B. G. Janesko, R. Gomperts, B. Mennucci, H. P. Hratchian, 
 J. V. Ortiz, A. F. Izmaylov, J. L. Sonnenberg, D. Williams-Young, 
 F. Ding, F. Lipparini, F. Egidi, J. Goings, B. Peng, A. Petrone, 
 T. Henderson, D. Ranasinghe, V. G. Zakrzewski, J. Gao, N. Rega, 
 G. Zheng, W. Liang, M. Hada, M. Ehara, K. Toyota, R. Fukuda, 
 J. Hasegawa, M. Ishida, T. Nakajima, Y. Honda, O. Kitao, H. Nakai, 
 T. Vreven, K. Throssell, J. A. Montgomery, Jr., J. E. Peralta, 
 F. Ogliaro, M. J. Bearpark, J. J. Heyd, E. N. Brothers, K. N. Kudin, 
 V. N. Staroverov, T. A. Keith, R. Kobayashi, J. Normand, 
 K. Raghavachari, A. P. Rendell, J. C. Burant, S. S. Iyengar, 
 J. Tomasi, M. Cossi, J. M. Millam, M. Klene, C. Adamo, R. Cammi, 
 J. W. Ochterski, R. L. Martin, K. Morokuma, O. Farkas, 
 J. B. Foresman, and D. J. Fox, Gaussian, Inc., Wallingford CT, 2016.
 
 ******************************************
 Gaussian 16:  AS64L-G16RevA.03 25-Dec-2016
                 5-Aug-2019 
 ******************************************
 %nprocshared=16
 Will use up to   16 processors via shared memory.
 %mem=32GB
 ----------------------------------------------------------------------
 #p opt=(ts,calcfc,noeigentest) freq=noraman b3lyp/genecp empiricaldisp
 ersion=gd3bj
 ----------------------------------------------------------------------
 1/5=1,10=4,11=1,18=20,26=3,38=1/1,3;
 2/9=110,12=2,17=6,18=5,40=1/2;
 3/5=7,11=2,16=1,17=8,25=1,30=1,71=2,74=-5,124=41,140=1/1,2,3;
 4//1;
 5/5=2,38=5/2;
 8/6=4,10=90,11=11/1;
 11/6=1,8=1,9=11,15=111,16=1/1,2,10;
 10/6=1,13=1/2;
 6/7=2,8=2,9=2,10=2,28=1/1;
 7/10=1,18=20,25=1/1,2,3,16;
 1/5=1,10=4,11=1,18=20,26=3/3(2);
 2/9=110/2;
 99//99;
 2/9=110/2;
 3/5=7,6=1,11=2,16=1,17=8,25=1,30=1,71=1,74=-5,82=7,124=41/1,2,3;
 4/5=5,16=3,69=1/1;
 5/5=2,38=5/2;
 7//1,2,3,16;
 1/5=1,11=1,18=20,26=3/3(-5);
 2/9=110/2;
 6/7=2,8=2,9=2,10=2,19=2,28=1/1;
 99/9=1/99;
 Leave Link    1 at Mon Aug  5 14:47:24 2019, MaxMem=  4294967296 cpu:               1.7 elap:               0.1
 (Enter /home/cwagen/sw/g16/g16/l101.exe)
 -----
 title
 -----
 Symbolic Z-matrix:
 Charge =  0 Multiplicity = 1
 C                     1.03862   0.22113  -0.39943 
 C                     1.69163  -0.47382   0.80299 
 H                     1.52148  -0.07233  -1.35659 
 H                     2.69541  -0.05011   0.92752 
 H                     1.12878  -0.26429   1.71688 
 H                     1.7903   -1.55722   0.67032 
 O                     0.6626    1.41653  -0.2836 
 C                    -0.39248  -0.84774  -0.93194 
 C                    -1.21529  -0.77529   0.16615 
 H                     0.08476  -1.7968   -1.16531 
 H                    -0.64035  -0.23893  -1.79737 
 C                    -1.90491   0.48267   0.48136 
 H                    -1.11892  -1.53065   0.94447 
 H                    -2.46716   0.46747   1.41721 
 H                    -1.06002   1.22724   0.53243 
 H                    -2.54045   0.84165  -0.33547 
 
 Add virtual bond connecting atoms C8         and C1         Dist= 3.52D+00.
 Add virtual bond connecting atoms H15        and O7         Dist= 3.62D+00.
 ITRead=  0  0  0  0  0  0  0  0  0  0  0  0  0  0  0  0
 MicOpt= -1 -1 -1 -1 -1 -1 -1 -1 -1 -1 -1 -1 -1 -1 -1 -1
 NAtoms=     16 NQM=       16 NQMF=       0 NMMI=      0 NMMIF=      0
                NMic=       0 NMicF=      0.
                    Isotopes and Nuclear Properties:
 (Nuclear quadrupole moments (NQMom) in fm**2, nuclear magnetic moments (NMagM)
  in nuclear magnetons)

  Atom         1           2           3           4           5           6           7           8           9          10
 IAtWgt=          12          12           1           1           1           1          16          12          12           1
 AtmWgt=  12.0000000  12.0000000   1.0078250   1.0078250   1.0078250   1.0078250  15.9949146  12.0000000  12.0000000   1.0078250
 NucSpn=           0           0           1           1           1           1           0           0           0           1
 AtZEff=   0.0000000   0.0000000   0.0000000   0.0000000   0.0000000   0.0000000   0.0000000   0.0000000   0.0000000   0.0000000
 NQMom=    0.0000000   0.0000000   0.0000000   0.0000000   0.0000000   0.0000000   0.0000000   0.0000000   0.0000000   0.0000000
 NMagM=    0.0000000   0.0000000   2.7928460   2.7928460   2.7928460   2.7928460   0.0000000   0.0000000   0.0000000   2.7928460
 AtZNuc=   6.0000000   6.0000000   1.0000000   1.0000000   1.0000000   1.0000000   8.0000000   6.0000000   6.0000000   1.0000000

  Atom        11          12          13          14          15          16
 IAtWgt=           1          12           1           1           1           1
 AtmWgt=   1.0078250  12.0000000   1.0078250   1.0078250   1.0078250   1.0078250
 NucSpn=           1           0           1           1           1           1
 AtZEff=   0.0000000   0.0000000   0.0000000   0.0000000   0.0000000   0.0000000
 NQMom=    0.0000000   0.0000000   0.0000000   0.0000000   0.0000000   0.0000000
 NMagM=    2.7928460   0.0000000   2.7928460   2.7928460   2.7928460   2.7928460
 AtZNuc=   1.0000000   6.0000000   1.0000000   1.0000000   1.0000000   1.0000000
 Leave Link  101 at Mon Aug  5 14:47:24 2019, MaxMem=  4294967296 cpu:               7.8 elap:               0.6
 (Enter /home/cwagen/sw/g16/g16/l103.exe)

 GradGradGradGradGradGradGradGradGradGradGradGradGradGradGradGradGradGrad
 Berny optimization.
 Initialization pass.
                           ----------------------------
                           !    Initial Parameters    !
                           ! (Angstroms and Degrees)  !
 --------------------------                            --------------------------
 ! Name  Definition              Value          Derivative Info.                !
 --------------------------------------------------------------------------------
 ! R1    R(1,2)                  1.5347         calculate D2E/DX2 analytically  !
 ! R2    R(1,3)                  1.1115         calculate D2E/DX2 analytically  !
 ! R3    R(1,7)                  1.2585         calculate D2E/DX2 analytically  !
 ! R4    R(1,8)                  1.8639         calculate D2E/DX2 analytically  !
 ! R5    R(2,4)                  1.0966         calculate D2E/DX2 analytically  !
 ! R6    R(2,5)                  1.0936         calculate D2E/DX2 analytically  !
 ! R7    R(2,6)                  1.0959         calculate D2E/DX2 analytically  !
 ! R8    R(7,15)                 1.9155         calculate D2E/DX2 analytically  !
 ! R9    R(8,9)                  1.3741         calculate D2E/DX2 analytically  !
 ! R10   R(8,10)                 1.0876         calculate D2E/DX2 analytically  !
 ! R11   R(8,11)                 1.0868         calculate D2E/DX2 analytically  !
 ! R12   R(9,12)                 1.4688         calculate D2E/DX2 analytically  !
 ! R13   R(9,13)                 1.0889         calculate D2E/DX2 analytically  !
 ! R14   R(12,14)                1.0919         calculate D2E/DX2 analytically  !
 ! R15   R(12,15)                1.1273         calculate D2E/DX2 analytically  !
 ! R16   R(12,16)                1.0954         calculate D2E/DX2 analytically  !
 ! A1    A(2,1,3)              111.7344         calculate D2E/DX2 analytically  !
 ! A2    A(2,1,7)              119.0228         calculate D2E/DX2 analytically  !
 ! A3    A(2,1,8)              106.9098         calculate D2E/DX2 analytically  !
 ! A4    A(3,1,7)              117.3774         calculate D2E/DX2 analytically  !
 ! A5    A(3,1,8)               86.3373         calculate D2E/DX2 analytically  !
 ! A6    A(7,1,8)              109.9742         calculate D2E/DX2 analytically  !
 ! A7    A(1,2,4)              107.6668         calculate D2E/DX2 analytically  !
 ! A8    A(1,2,5)              110.426          calculate D2E/DX2 analytically  !
 ! A9    A(1,2,6)              113.024          calculate D2E/DX2 analytically  !
 ! A10   A(4,2,5)              107.5888         calculate D2E/DX2 analytically  !
 ! A11   A(4,2,6)              108.2581         calculate D2E/DX2 analytically  !
 ! A12   A(5,2,6)              109.6887         calculate D2E/DX2 analytically  !
 ! A13   A(1,7,15)             102.3596         calculate D2E/DX2 analytically  !
 ! A14   A(1,8,9)              101.6082         calculate D2E/DX2 analytically  !
 ! A15   A(1,8,10)             102.9909         calculate D2E/DX2 analytically  !
 ! A16   A(1,8,11)              94.6675         calculate D2E/DX2 analytically  !
 ! A17   A(9,8,10)             118.7009         calculate D2E/DX2 analytically  !
 ! A18   A(9,8,11)             118.0523         calculate D2E/DX2 analytically  !
 ! A19   A(10,8,11)            114.7112         calculate D2E/DX2 analytically  !
 ! A20   A(8,9,12)             119.855          calculate D2E/DX2 analytically  !
 ! A21   A(8,9,13)             118.7933         calculate D2E/DX2 analytically  !
 ! A22   A(12,9,13)            118.8351         calculate D2E/DX2 analytically  !
 ! A23   A(9,12,14)            114.4425         calculate D2E/DX2 analytically  !
 ! A24   A(9,12,15)            102.9152         calculate D2E/DX2 analytically  !
 ! A25   A(9,12,16)            113.1437         calculate D2E/DX2 analytically  !
 ! A26   A(14,12,15)           110.8731         calculate D2E/DX2 analytically  !
 ! A27   A(14,12,16)           110.1771         calculate D2E/DX2 analytically  !
 ! A28   A(15,12,16)           104.6057         calculate D2E/DX2 analytically  !
 ! A29   A(7,15,12)            136.0521         calculate D2E/DX2 analytically  !
 ! D1    D(3,1,2,4)             69.4829         calculate D2E/DX2 analytically  !
 ! D2    D(3,1,2,5)           -173.3211         calculate D2E/DX2 analytically  !
 ! D3    D(3,1,2,6)            -50.0299         calculate D2E/DX2 analytically  !
 ! D4    D(7,1,2,4)            -72.4521         calculate D2E/DX2 analytically  !
 ! D5    D(7,1,2,5)             44.7438         calculate D2E/DX2 analytically  !
 ! D6    D(7,1,2,6)            168.0351         calculate D2E/DX2 analytically  !
 ! D7    D(8,1,2,4)            162.3095         calculate D2E/DX2 analytically  !
 ! D8    D(8,1,2,5)            -80.4946         calculate D2E/DX2 analytically  !
 ! D9    D(8,1,2,6)             42.7967         calculate D2E/DX2 analytically  !
 ! D10   D(2,1,7,15)           -83.2955         calculate D2E/DX2 analytically  !
 ! D11   D(3,1,7,15)           136.8673         calculate D2E/DX2 analytically  !
 ! D12   D(8,1,7,15)            40.4555         calculate D2E/DX2 analytically  !
 ! D13   D(2,1,8,9)             64.3293         calculate D2E/DX2 analytically  !
 ! D14   D(2,1,8,10)           -59.0742         calculate D2E/DX2 analytically  !
 ! D15   D(2,1,8,11)          -175.7722         calculate D2E/DX2 analytically  !
 ! D16   D(3,1,8,9)            175.9444         calculate D2E/DX2 analytically  !
 ! D17   D(3,1,8,10)            52.5409         calculate D2E/DX2 analytically  !
 ! D18   D(3,1,8,11)           -64.1571         calculate D2E/DX2 analytically  !
 ! D19   D(7,1,8,9)            -66.2147         calculate D2E/DX2 analytically  !
 ! D20   D(7,1,8,10)           170.3817         calculate D2E/DX2 analytically  !
 ! D21   D(7,1,8,11)            53.6838         calculate D2E/DX2 analytically  !
 ! D22   D(1,7,15,12)          -34.0463         calculate D2E/DX2 analytically  !
 ! D23   D(1,8,9,12)            69.8876         calculate D2E/DX2 analytically  !
 ! D24   D(1,8,9,13)           -91.9181         calculate D2E/DX2 analytically  !
 ! D25   D(10,8,9,12)         -178.1435         calculate D2E/DX2 analytically  !
 ! D26   D(10,8,9,13)           20.0507         calculate D2E/DX2 analytically  !
 ! D27   D(11,8,9,12)          -31.8596         calculate D2E/DX2 analytically  !
 ! D28   D(11,8,9,13)          166.3346         calculate D2E/DX2 analytically  !
 ! D29   D(8,9,12,14)         -175.0375         calculate D2E/DX2 analytically  !
 ! D30   D(8,9,12,15)          -54.6558         calculate D2E/DX2 analytically  !
 ! D31   D(8,9,12,16)           57.6388         calculate D2E/DX2 analytically  !
 ! D32   D(13,9,12,14)         -13.2393         calculate D2E/DX2 analytically  !
 ! D33   D(13,9,12,15)         107.1424         calculate D2E/DX2 analytically  !
 ! D34   D(13,9,12,16)        -140.563          calculate D2E/DX2 analytically  !
 ! D35   D(9,12,15,7)           29.2949         calculate D2E/DX2 analytically  !
 ! D36   D(14,12,15,7)         152.0997         calculate D2E/DX2 analytically  !
 ! D37   D(16,12,15,7)         -89.1597         calculate D2E/DX2 analytically  !
 --------------------------------------------------------------------------------
 Trust Radius=3.00D-01 FncErr=1.00D-07 GrdErr=1.00D-06 EigMax=2.50D+02 EigMin=1.00D-04
 Number of steps in this run=     92 maximum allowed number of steps=    100.
 Search for a saddle point of order  1.
 GradGradGradGradGradGradGradGradGradGradGradGradGradGradGradGradGradGrad

 Leave Link  103 at Mon Aug  5 14:47:24 2019, MaxMem=  4294967296 cpu:               1.5 elap:               0.2
 (Enter /home/cwagen/sw/g16/g16/l202.exe)
                          Input orientation:                          
 ---------------------------------------------------------------------
 Center     Atomic      Atomic             Coordinates (Angstroms)
 Number     Number       Type             X           Y           Z
 ---------------------------------------------------------------------
      1          6           0        1.038621    0.221129   -0.399434
      2          6           0        1.691633   -0.473824    0.802989
      3          1           0        1.521479   -0.072332   -1.356593
      4          1           0        2.695409   -0.050107    0.927518
      5          1           0        1.128775   -0.264292    1.716879
      6          1           0        1.790299   -1.557221    0.670323
      7          8           0        0.662595    1.416534   -0.283600
      8          6           0       -0.392481   -0.847741   -0.931940
      9          6           0       -1.215291   -0.775287    0.166149
     10          1           0        0.084760   -1.796800   -1.165309
     11          1           0       -0.640349   -0.238928   -1.797372
     12          6           0       -1.904910    0.482673    0.481355
     13          1           0       -1.118920   -1.530654    0.944469
     14          1           0       -2.467163    0.467467    1.417212
     15          1           0       -1.060025    1.227239    0.532433
     16          1           0       -2.540451    0.841652   -0.335471
 ---------------------------------------------------------------------
                    Distance matrix (angstroms):
                    1          2          3          4          5
     1  C    0.000000
     2  C    1.534668   0.000000
     3  H    1.111497   2.203166   0.000000
     4  H    2.139934   1.096636   2.568223   0.000000
     5  H    2.173141   1.093576   3.104399   1.767288   0.000000
     6  H    2.207245   1.095940   2.526964   1.776729   1.790128
     7  O    1.258494   2.411026   2.026257   2.783914   2.654132
     8  C    1.863893   2.737394   2.108277   3.691730   3.109803
     9  C    2.528408   2.991095   3.209797   4.049586   2.856663
    10  H    2.359757   2.864700   2.252674   3.774434   3.427179
    11  H    2.232672   3.500742   2.212587   4.311376   3.934514
    12  C    3.083597   3.735433   3.927623   4.652510   3.359720
    13  H    3.087038   3.006013   3.793850   4.091627   2.693032
    14  H    3.956186   4.308002   4.888215   5.211510   3.681853
    15  H    2.506980   3.246296   3.452748   3.986350   2.901452
    16  H    3.633029   4.575708   4.286879   5.459359   4.347237
                    6          7          8          9         10
     6  H    0.000000
     7  O    3.320377   0.000000
     8  C    2.799131   2.580789   0.000000
     9  C    3.146297   2.921097   1.374069   0.000000
    10  H    2.517103   3.381837   1.087627   2.122829   0.000000
    11  H    3.706139   2.594171   1.086768   2.115101   1.830916
    12  C    4.225097   2.837135   2.460660   1.468807   3.444748
    13  H    2.922228   3.656209   2.124852   1.088875   2.443531
    14  H    4.773174   3.686309   3.398911   2.162586   4.278859
    15  H    3.987051   1.915506   2.625937   2.041662   3.652078
    16  H    5.051892   3.254640   2.797070   2.149922   3.813370
                   11         12         13         14         15
    11  H    0.000000
    12  C    2.704149   0.000000
    13  H    3.068433   2.210371   0.000000
    14  H    3.764279   1.091874   2.456366   0.000000
    15  H    2.784558   1.127306   2.789125   1.827601   0.000000
    16  H    2.629676   1.095437   3.047430   1.793679   1.758862
                   16
    16  H    0.000000
 Stoichiometry    C5H10O
 Framework group  C1[X(C5H10O)]
 Deg. of freedom    42
 Full point group                 C1      NOp   1
 Largest Abelian subgroup         C1      NOp   1
 Largest concise Abelian subgroup C1      NOp   1
                         Standard orientation:                         
 ---------------------------------------------------------------------
 Center     Atomic      Atomic             Coordinates (Angstroms)
 Number     Number       Type             X           Y           Z
 ---------------------------------------------------------------------
      1          6           0       -1.038621    0.221129    0.399434
      2          6           0       -1.691633   -0.473824   -0.802989
      3          1           0       -1.521479   -0.072332    1.356593
      4          1           0       -2.695409   -0.050107   -0.927518
      5          1           0       -1.128775   -0.264292   -1.716879
      6          1           0       -1.790299   -1.557221   -0.670323
      7          8           0       -0.662595    1.416534    0.283600
      8          6           0        0.392481   -0.847741    0.931940
      9          6           0        1.215291   -0.775287   -0.166149
     10          1           0       -0.084760   -1.796800    1.165309
     11          1           0        0.640349   -0.238928    1.797372
     12          6           0        1.904910    0.482673   -0.481355
     13          1           0        1.118920   -1.530654   -0.944469
     14          1           0        2.467163    0.467467   -1.417212
     15          1           0        1.060025    1.227239   -0.532433
     16          1           0        2.540451    0.841652    0.335471
 ---------------------------------------------------------------------
 Rotational constants (GHZ):           4.9240047           2.7168113           2.3882554
 Leave Link  202 at Mon Aug  5 14:47:25 2019, MaxMem=  4294967296 cpu:               2.0 elap:               0.2
 (Enter /home/cwagen/sw/g16/g16/l301.exe)
 General basis read from cards:  (5D, 7F)
 Centers:       1      2      8      9     12      3      4      5      6     10
 Centers:      11     13     14     15     16      7
 6-31G(d)
 ****
 ======================================================================================================
                                       Pseudopotential Parameters
 ======================================================================================================
  Center     Atomic      Valence      Angular      Power
  Number     Number     Electrons     Momentum     of R      Exponent        Coefficient   SO-Coeffient
 ======================================================================================================
    1          6
                                   No pseudopotential on this center.
    2          6
                                   No pseudopotential on this center.
    3          1
                                   No pseudopotential on this center.
    4          1
                                   No pseudopotential on this center.
    5          1
                                   No pseudopotential on this center.
    6          1
                                   No pseudopotential on this center.
    7          8
                                   No pseudopotential on this center.
    8          6
                                   No pseudopotential on this center.
    9          6
                                   No pseudopotential on this center.
   10          1
                                   No pseudopotential on this center.
   11          1
                                   No pseudopotential on this center.
   12          6
                                   No pseudopotential on this center.
   13          1
                                   No pseudopotential on this center.
   14          1
                                   No pseudopotential on this center.
   15          1
                                   No pseudopotential on this center.
   16          1
                                   No pseudopotential on this center.
 ======================================================================================================
 Ernie: Thresh=  0.10000D-02 Tol=  0.10000D-05 Strict=F.
 There are   110 symmetry adapted cartesian basis functions of A   symmetry.
 There are   104 symmetry adapted basis functions of A   symmetry.
   104 basis functions,   208 primitive gaussians,   110 cartesian basis functions
    24 alpha electrons       24 beta electrons
       nuclear repulsion energy       245.2190435256 Hartrees.
 IExCor=  402 DFT=T Ex+Corr=B3LYP ExCW=0 ScaHFX=  0.200000
 ScaDFX=  0.800000  0.720000  1.000000  0.810000 ScalE2=  1.000000  1.000000
 IRadAn=      5 IRanWt=     -1 IRanGd=            0 ICorTp=0 IEmpDi=141
 NAtoms=   16 NActive=   16 NUniq=   16 SFac= 1.00D+00 NAtFMM=   60 NAOKFM=F Big=F
 Integral buffers will be    131072 words long.
 Raffenetti 2 integral format.
 Two-electron integral symmetry is turned on.
 R6Disp:  Grimme-D3(BJ) Dispersion energy=       -0.0216536157 Hartrees.
 Nuclear repulsion after empirical dispersion term =      245.1973899099 Hartrees.
 Leave Link  301 at Mon Aug  5 14:47:25 2019, MaxMem=  4294967296 cpu:               2.1 elap:               0.2
 (Enter /home/cwagen/sw/g16/g16/l302.exe)
 NPDir=0 NMtPBC=     1 NCelOv=     1 NCel=       1 NClECP=     1 NCelD=      1
         NCelK=      1 NCelE2=     1 NClLst=     1 CellRange=     0.0.
 One-electron integrals computed using PRISM.
 One-electron integral symmetry used in STVInt
   1 Symmetry operations used in ECPInt.
 ECPInt:  NShTT=     990 NPrTT=    5809 LenC2=     988 LenP2D=    4347.
 LDataN:  DoStor=T MaxTD1= 4 Len=   56
 NBasis=   104 RedAO= T EigKep=  5.02D-03  NBF=   104
 NBsUse=   104 1.00D-06 EigRej= -1.00D+00 NBFU=   104
 Precomputing XC quadrature grid using
 IXCGrd= 4 IRadAn=           5 IRanWt=          -1 IRanGd=           0 AccXCQ= 0.00D+00.
 Generated NRdTot=       0 NPtTot=           0 NUsed=           0 NTot=          32
 NSgBfM=   110   110   110   110   110 MxSgAt=    16 MxSgA2=    16.
 Leave Link  302 at Mon Aug  5 14:47:27 2019, MaxMem=  4294967296 cpu:              28.9 elap:               2.3
 (Enter /home/cwagen/sw/g16/g16/l303.exe)
 DipDrv:  MaxL=1.
 Leave Link  303 at Mon Aug  5 14:47:28 2019, MaxMem=  4294967296 cpu:               6.8 elap:               0.6
 (Enter /home/cwagen/sw/g16/g16/l401.exe)
 ExpMin= 1.61D-01 ExpMax= 5.48D+03 ExpMxC= 8.25D+02 IAcc=3 IRadAn=         5 AccDes= 0.00D+00
 Harris functional with IExCor=  402 and IRadAn=       5 diagonalized for initial guess.
 HarFok:  IExCor=  402 AccDes= 0.00D+00 IRadAn=         5 IDoV= 1 UseB2=F ITyADJ=14
 ICtDFT=  3500011 ScaDFX=  1.000000  1.000000  1.000000  1.000000
 FoFCou: FMM=F IPFlag=           0 FMFlag=      100000 FMFlg1=           0
         NFxFlg=           0 DoJE=T BraDBF=F KetDBF=T FulRan=T
         wScrn=  0.000000 ICntrl=       500 IOpCl=  0 I1Cent=   200000004 NGrid=           0
         NMat0=    1 NMatS0=      1 NMatT0=    0 NMatD0=    1 NMtDS0=    0 NMtDT0=    0
 Petite list used in FoFCou.
 Harris En= -271.766710951651    
 JPrj=0 DoOrth=F DoCkMO=F.
 Leave Link  401 at Mon Aug  5 14:47:31 2019, MaxMem=  4294967296 cpu:              40.1 elap:               3.1
 (Enter /home/cwagen/sw/g16/g16/l502.exe)
 Integral symmetry usage will be decided dynamically.
 Closed shell SCF:
 Using DIIS extrapolation, IDIIS=  1040.
 NGot=  4294967296 LenX=  4294939860 LenY=  4294927319
 Requested convergence on RMS density matrix=1.00D-08 within 128 cycles.
 Requested convergence on MAX density matrix=1.00D-06.
 Requested convergence on             energy=1.00D-06.
 No special actions if energy rises.
 Fock matrices will be formed incrementally for  20 cycles.
 Integral accuracy reduced to 1.0D-05 until final iterations.

 Cycle   1  Pass 0  IDiag  1:
 FoFJK:  IHMeth= 1 ICntrl=       0 DoSepK=F KAlg= 0 I1Cent=           0 FoldK=F
 IRaf= 990000000 NMat=       1 IRICut=       1 DoRegI=T DoRafI=F ISym2E= 0 IDoP0=0 IntGTp=1.
 FoFCou: FMM=F IPFlag=           0 FMFlag=      100000 FMFlg1=           0
         NFxFlg=           0 DoJE=F BraDBF=F KetDBF=F FulRan=T
         wScrn=  0.000000 ICntrl=         0 IOpCl=  0 I1Cent=           0 NGrid=           0
         NMat0=    1 NMatS0=      1 NMatT0=    0 NMatD0=    1 NMtDS0=    0 NMtDT0=    0
 Symmetry not used in FoFCou.
 E= -271.472474423837    
 DIIS: error= 3.47D-02 at cycle   1 NSaved=   1.
 NSaved= 1 IEnMin= 1 EnMin= -271.472474423837     IErMin= 1 ErrMin= 3.47D-02
 ErrMax= 3.47D-02  0.00D+00 EMaxC= 1.00D-01 BMatC= 2.27D-01 BMatP= 2.27D-01
 IDIUse=3 WtCom= 6.53D-01 WtEn= 3.47D-01
 Coeff-Com:  0.100D+01
 Coeff-En:   0.100D+01
 Coeff:      0.100D+01
 Gap=     0.059 Goal=   None    Shift=    0.000
 GapD=    0.059 DampG=0.500 DampE=0.500 DampFc=0.2500 IDamp=-1.
 Damping current iteration by 2.50D-01
 RMSDP=1.41D-02 MaxDP=2.44D-01              OVMax= 4.82D-01

 Cycle   2  Pass 0  IDiag  1:
 RMSU=  3.52D-03    CP:  9.90D-01
 E= -271.550818417073     Delta-E=       -0.078343993236 Rises=F Damp=T
 DIIS: error= 1.78D-02 at cycle   2 NSaved=   2.
 NSaved= 2 IEnMin= 2 EnMin= -271.550818417073     IErMin= 2 ErrMin= 1.78D-02
 ErrMax= 1.78D-02  0.00D+00 EMaxC= 1.00D-01 BMatC= 4.38D-02 BMatP= 2.27D-01
 IDIUse=3 WtCom= 8.22D-01 WtEn= 1.78D-01
 Coeff-Com: -0.481D+00 0.148D+01
 Coeff-En:   0.000D+00 0.100D+01
 Coeff:     -0.395D+00 0.140D+01
 Gap=     0.171 Goal=   None    Shift=    0.000
 RMSDP=3.94D-03 MaxDP=5.80D-02 DE=-7.83D-02 OVMax= 3.95D-01

 Cycle   3  Pass 0  IDiag  1:
 RMSU=  3.90D-03    CP:  9.73D-01  9.88D-01
 E= -271.635562857836     Delta-E=       -0.084744440763 Rises=F Damp=F
 DIIS: error= 2.37D-02 at cycle   3 NSaved=   3.
 NSaved= 3 IEnMin= 3 EnMin= -271.635562857836     IErMin= 2 ErrMin= 1.78D-02
 ErrMax= 2.37D-02  0.00D+00 EMaxC= 1.00D-01 BMatC= 6.82D-02 BMatP= 4.38D-02
 IDIUse=2 WtCom= 0.00D+00 WtEn= 1.00D+00
 Coeff-En:   0.000D+00 0.715D-01 0.929D+00
 Coeff:      0.000D+00 0.715D-01 0.929D+00
 Gap=     0.145 Goal=   None    Shift=    0.000
 RMSDP=9.23D-03 MaxDP=2.16D-01 DE=-8.47D-02 OVMax= 5.56D-01

 Cycle   4  Pass 0  IDiag  1:
 RMSU=  4.00D-03    CP:  9.82D-01  2.38D+00 -7.20D-01
 E= -271.170796627986     Delta-E=        0.464766229850 Rises=F Damp=F
 DIIS: error= 8.97D-02 at cycle   4 NSaved=   4.
 NSaved= 4 IEnMin= 3 EnMin= -271.635562857836     IErMin= 2 ErrMin= 1.78D-02
 ErrMax= 8.97D-02  0.00D+00 EMaxC= 1.00D-01 BMatC= 5.33D-01 BMatP= 4.38D-02
 IDIUse=2 WtCom= 0.00D+00 WtEn= 1.00D+00
 Coeff-En:   0.000D+00 0.000D+00 0.823D+00 0.177D+00
 Coeff:      0.000D+00 0.000D+00 0.823D+00 0.177D+00
 Gap=     0.103 Goal=   None    Shift=    0.000
 RMSDP=5.58D-03 MaxDP=1.20D-01 DE= 4.65D-01 OVMax= 3.28D-01

 Cycle   5  Pass 0  IDiag  1:
 RMSU=  1.39D-03    CP:  9.85D-01  1.37D+00  1.12D-01  3.88D-01
 E= -271.664437789077     Delta-E=       -0.493641161091 Rises=F Damp=F
 DIIS: error= 2.23D-02 at cycle   5 NSaved=   5.
 NSaved= 5 IEnMin= 5 EnMin= -271.664437789077     IErMin= 2 ErrMin= 1.78D-02
 ErrMax= 2.23D-02  0.00D+00 EMaxC= 1.00D-01 BMatC= 4.15D-02 BMatP= 4.38D-02
 IDIUse=3 WtCom= 7.77D-01 WtEn= 2.23D-01
 Coeff-Com: -0.103D+00 0.195D+00 0.349D+00-0.834D-01 0.642D+00
 Coeff-En:   0.000D+00 0.000D+00 0.403D+00 0.000D+00 0.597D+00
 Coeff:     -0.797D-01 0.151D+00 0.361D+00-0.649D-01 0.632D+00
 Gap=     0.153 Goal=   None    Shift=    0.000
 RMSDP=1.85D-03 MaxDP=4.21D-02 DE=-4.94D-01 OVMax= 1.09D-01

 Cycle   6  Pass 0  IDiag  1:
 RMSU=  2.19D-04    CP:  9.81D-01  1.20D+00  4.94D-01  1.83D-01  7.53D-01
 E= -271.705272242285     Delta-E=       -0.040834453208 Rises=F Damp=F
 DIIS: error= 3.48D-04 at cycle   6 NSaved=   6.
 NSaved= 6 IEnMin= 6 EnMin= -271.705272242285     IErMin= 6 ErrMin= 3.48D-04
 ErrMax= 3.48D-04  0.00D+00 EMaxC= 1.00D-01 BMatC= 3.48D-05 BMatP= 4.15D-02
 IDIUse=3 WtCom= 9.97D-01 WtEn= 3.48D-03
 Coeff-Com: -0.174D-01 0.261D-01 0.695D-01-0.202D-01 0.154D+00 0.788D+00
 Coeff-En:   0.000D+00 0.000D+00 0.000D+00 0.000D+00 0.000D+00 0.100D+01
 Coeff:     -0.173D-01 0.260D-01 0.692D-01-0.201D-01 0.154D+00 0.788D+00
 Gap=     0.154 Goal=   None    Shift=    0.000
 RMSDP=1.05D-04 MaxDP=2.16D-03 DE=-4.08D-02 OVMax= 4.71D-03

 Cycle   7  Pass 0  IDiag  1:
 RMSU=  8.85D-05    CP:  9.81D-01  1.20D+00  4.89D-01  1.88D-01  7.65D-01
                    CP:  8.09D-01
 E= -271.705277644027     Delta-E=       -0.000005401742 Rises=F Damp=F
 DIIS: error= 4.79D-04 at cycle   7 NSaved=   7.
 NSaved= 7 IEnMin= 7 EnMin= -271.705277644027     IErMin= 6 ErrMin= 3.48D-04
 ErrMax= 4.79D-04  0.00D+00 EMaxC= 1.00D-01 BMatC= 2.97D-05 BMatP= 3.48D-05
 IDIUse=3 WtCom= 9.97D-01 WtEn= 3.48D-03
 Coeff-Com: -0.778D-04-0.203D-02 0.463D-02-0.351D-02 0.193D-01 0.488D+00
 Coeff-Com:  0.494D+00
 Coeff-En:   0.000D+00 0.000D+00 0.000D+00 0.000D+00 0.000D+00 0.466D+00
 Coeff-En:   0.534D+00
 Coeff:     -0.776D-04-0.202D-02 0.462D-02-0.350D-02 0.192D-01 0.488D+00
 Coeff:      0.494D+00
 Gap=     0.155 Goal=   None    Shift=    0.000
 RMSDP=5.71D-05 MaxDP=1.26D-03 DE=-5.40D-06 OVMax= 3.60D-03

 Cycle   8  Pass 0  IDiag  1:
 RMSU=  2.59D-05    CP:  9.81D-01  1.20D+00  4.93D-01  1.85D-01  7.63D-01
                    CP:  9.31D-01  6.06D-01
 E= -271.705308452683     Delta-E=       -0.000030808656 Rises=F Damp=F
 DIIS: error= 9.20D-05 at cycle   8 NSaved=   8.
 NSaved= 8 IEnMin= 8 EnMin= -271.705308452683     IErMin= 8 ErrMin= 9.20D-05
 ErrMax= 9.20D-05  0.00D+00 EMaxC= 1.00D-01 BMatC= 1.44D-06 BMatP= 2.97D-05
 IDIUse=1 WtCom= 1.00D+00 WtEn= 0.00D+00
 Coeff-Com:  0.101D-02-0.256D-02-0.924D-03-0.655D-03 0.195D-02 0.223D+00
 Coeff-Com:  0.275D+00 0.502D+00
 Coeff:      0.101D-02-0.256D-02-0.924D-03-0.655D-03 0.195D-02 0.223D+00
 Coeff:      0.275D+00 0.502D+00
 Gap=     0.155 Goal=   None    Shift=    0.000
 RMSDP=1.24D-05 MaxDP=2.50D-04 DE=-3.08D-05 OVMax= 5.68D-04

 Cycle   9  Pass 0  IDiag  1:
 RMSU=  8.04D-06    CP:  9.81D-01  1.20D+00  4.92D-01  1.85D-01  7.64D-01
                    CP:  9.25D-01  6.12D-01  6.68D-01
 E= -271.705309839128     Delta-E=       -0.000001386445 Rises=F Damp=F
 DIIS: error= 2.82D-05 at cycle   9 NSaved=   9.
 NSaved= 9 IEnMin= 9 EnMin= -271.705309839128     IErMin= 9 ErrMin= 2.82D-05
 ErrMax= 2.82D-05  0.00D+00 EMaxC= 1.00D-01 BMatC= 1.03D-07 BMatP= 1.44D-06
 IDIUse=1 WtCom= 1.00D+00 WtEn= 0.00D+00
 Coeff-Com:  0.406D-03-0.703D-03-0.193D-02 0.253D-03-0.321D-02 0.457D-01
 Coeff-Com:  0.757D-01 0.249D+00 0.635D+00
 Coeff:      0.406D-03-0.703D-03-0.193D-02 0.253D-03-0.321D-02 0.457D-01
 Coeff:      0.757D-01 0.249D+00 0.635D+00
 Gap=     0.155 Goal=   None    Shift=    0.000
 RMSDP=3.91D-06 MaxDP=6.31D-05 DE=-1.39D-06 OVMax= 1.99D-04

 Initial convergence to 1.0D-05 achieved.  Increase integral accuracy.
 Cycle  10  Pass 1  IDiag  1:
 E= -271.705290036723     Delta-E=        0.000019802405 Rises=F Damp=F
 DIIS: error= 1.36D-05 at cycle   1 NSaved=   1.
 NSaved= 1 IEnMin= 1 EnMin= -271.705290036723     IErMin= 1 ErrMin= 1.36D-05
 ErrMax= 1.36D-05  0.00D+00 EMaxC= 1.00D-01 BMatC= 1.67D-08 BMatP= 1.67D-08
 IDIUse=1 WtCom= 1.00D+00 WtEn= 0.00D+00
 Coeff-Com:  0.100D+01
 Coeff:      0.100D+01
 Gap=     0.155 Goal=   None    Shift=    0.000
 RMSDP=3.91D-06 MaxDP=6.31D-05 DE= 1.98D-05 OVMax= 2.59D-04

 Cycle  11  Pass 1  IDiag  1:
 RMSU=  4.51D-06    CP:  1.00D+00
 E= -271.705289972842     Delta-E=        0.000000063881 Rises=F Damp=F
 DIIS: error= 3.55D-05 at cycle   2 NSaved=   2.
 NSaved= 2 IEnMin= 1 EnMin= -271.705290036723     IErMin= 1 ErrMin= 1.36D-05
 ErrMax= 3.55D-05  0.00D+00 EMaxC= 1.00D-01 BMatC= 8.29D-08 BMatP= 1.67D-08
 IDIUse=1 WtCom= 1.00D+00 WtEn= 0.00D+00
 Coeff-Com:  0.704D+00 0.296D+00
 Coeff:      0.704D+00 0.296D+00
 Gap=     0.155 Goal=   None    Shift=    0.000
 RMSDP=3.07D-06 MaxDP=7.38D-05 DE= 6.39D-08 OVMax= 2.00D-04

 Cycle  12  Pass 1  IDiag  1:
 RMSU=  1.56D-06    CP:  1.00D+00  4.15D-01
 E= -271.705290054961     Delta-E=       -0.000000082119 Rises=F Damp=F
 DIIS: error= 3.20D-06 at cycle   3 NSaved=   3.
 NSaved= 3 IEnMin= 3 EnMin= -271.705290054961     IErMin= 3 ErrMin= 3.20D-06
 ErrMax= 3.20D-06  0.00D+00 EMaxC= 1.00D-01 BMatC= 1.28D-09 BMatP= 1.67D-08
 IDIUse=1 WtCom= 1.00D+00 WtEn= 0.00D+00
 Coeff-Com:  0.135D+00 0.126D+00 0.739D+00
 Coeff:      0.135D+00 0.126D+00 0.739D+00
 Gap=     0.155 Goal=   None    Shift=    0.000
 RMSDP=4.44D-07 MaxDP=8.19D-06 DE=-8.21D-08 OVMax= 1.22D-05

 Cycle  13  Pass 1  IDiag  1:
 RMSU=  3.82D-07    CP:  1.00D+00  4.53D-01  9.13D-01
 E= -271.705290055789     Delta-E=       -0.000000000828 Rises=F Damp=F
 DIIS: error= 1.64D-06 at cycle   4 NSaved=   4.
 NSaved= 4 IEnMin= 4 EnMin= -271.705290055789     IErMin= 4 ErrMin= 1.64D-06
 ErrMax= 1.64D-06  0.00D+00 EMaxC= 1.00D-01 BMatC= 3.41D-10 BMatP= 1.28D-09
 IDIUse=1 WtCom= 1.00D+00 WtEn= 0.00D+00
 Coeff-Com:  0.458D-02 0.453D-01 0.427D+00 0.523D+00
 Coeff:      0.458D-02 0.453D-01 0.427D+00 0.523D+00
 Gap=     0.155 Goal=   None    Shift=    0.000
 RMSDP=1.83D-07 MaxDP=4.15D-06 DE=-8.28D-10 OVMax= 7.42D-06

 Cycle  14  Pass 1  IDiag  1:
 RMSU=  1.00D-07    CP:  1.00D+00  4.69D-01  9.27D-01  6.45D-01
 E= -271.705290056103     Delta-E=       -0.000000000314 Rises=F Damp=F
 DIIS: error= 4.01D-07 at cycle   5 NSaved=   5.
 NSaved= 5 IEnMin= 5 EnMin= -271.705290056103     IErMin= 5 ErrMin= 4.01D-07
 ErrMax= 4.01D-07  0.00D+00 EMaxC= 1.00D-01 BMatC= 3.14D-11 BMatP= 3.41D-10
 IDIUse=1 WtCom= 1.00D+00 WtEn= 0.00D+00
 Coeff-Com: -0.102D-01 0.147D-01 0.183D+00 0.301D+00 0.512D+00
 Coeff:     -0.102D-01 0.147D-01 0.183D+00 0.301D+00 0.512D+00
 Gap=     0.155 Goal=   None    Shift=    0.000
 RMSDP=5.55D-08 MaxDP=1.08D-06 DE=-3.14D-10 OVMax= 2.77D-06

 Cycle  15  Pass 1  IDiag  1:
 RMSU=  3.62D-08    CP:  1.00D+00  4.67D-01  9.36D-01  6.81D-01  6.40D-01
 E= -271.705290056133     Delta-E=       -0.000000000030 Rises=F Damp=F
 DIIS: error= 8.72D-08 at cycle   6 NSaved=   6.
 NSaved= 6 IEnMin= 6 EnMin= -271.705290056133     IErMin= 6 ErrMin= 8.72D-08
 ErrMax= 8.72D-08  0.00D+00 EMaxC= 1.00D-01 BMatC= 1.99D-12 BMatP= 3.14D-11
 IDIUse=1 WtCom= 1.00D+00 WtEn= 0.00D+00
 Coeff-Com: -0.558D-02 0.516D-02 0.659D-01 0.125D+00 0.279D+00 0.530D+00
 Coeff:     -0.558D-02 0.516D-02 0.659D-01 0.125D+00 0.279D+00 0.530D+00
 Gap=     0.155 Goal=   None    Shift=    0.000
 RMSDP=1.56D-08 MaxDP=3.31D-07 DE=-2.99D-11 OVMax= 5.33D-07

 Cycle  16  Pass 1  IDiag  1:
 RMSU=  1.26D-08    CP:  1.00D+00  4.67D-01  9.37D-01  6.71D-01  6.63D-01
                    CP:  7.95D-01
 E= -271.705290056136     Delta-E=       -0.000000000003 Rises=F Damp=F
 DIIS: error= 2.48D-08 at cycle   7 NSaved=   7.
 NSaved= 7 IEnMin= 7 EnMin= -271.705290056136     IErMin= 7 ErrMin= 2.48D-08
 ErrMax= 2.48D-08  0.00D+00 EMaxC= 1.00D-01 BMatC= 1.03D-13 BMatP= 1.99D-12
 IDIUse=1 WtCom= 1.00D+00 WtEn= 0.00D+00
 Coeff-Com: -0.259D-04-0.155D-03-0.992D-02-0.775D-02-0.962D-03 0.121D+00
 Coeff-Com:  0.897D+00
 Coeff:     -0.259D-04-0.155D-03-0.992D-02-0.775D-02-0.962D-03 0.121D+00
 Coeff:      0.897D+00
 Gap=     0.155 Goal=   None    Shift=    0.000
 RMSDP=6.33D-09 MaxDP=7.20D-08 DE=-3.07D-12 OVMax= 3.05D-07

 SCF Done:  E(RB3LYP) =  -271.705290056     A.U. after   16 cycles
            NFock= 16  Conv=0.63D-08     -V/T= 2.0061
 KE= 2.700702354154D+02 PE=-1.122944388058D+03 EE= 3.359714726760D+02
 Leave Link  502 at Mon Aug  5 14:48:00 2019, MaxMem=  4294967296 cpu:             373.7 elap:              28.9
 (Enter /home/cwagen/sw/g16/g16/l801.exe)
 DoSCS=F DFT=T ScalE2(SS,OS)=  1.000000  1.000000
 Range of M.O.s used for correlation:     1   104
 NBasis=   104 NAE=    24 NBE=    24 NFC=     0 NFV=     0
 NROrb=    104 NOA=    24 NOB=    24 NVA=    80 NVB=    80
 Leave Link  801 at Mon Aug  5 14:48:00 2019, MaxMem=  4294967296 cpu:               1.2 elap:               0.1
 (Enter /home/cwagen/sw/g16/g16/l1101.exe)
 Using compressed storage, NAtomX=    16.
 Will process     17 centers per pass.
   1 Symmetry operations used in ECPInt.
 ECPInt:  NShTT=     990 NPrTT=    5809 LenC2=     988 LenP2D=    4347.
 LDataN:  DoStor=T MaxTD1= 5 Len=  102
 R6Disp: Adding Grimme-D3(BJ) dispersion energy 1st derivatives to the gradient.
 Leave Link 1101 at Mon Aug  5 14:48:04 2019, MaxMem=  4294967296 cpu:              48.9 elap:               3.8
 (Enter /home/cwagen/sw/g16/g16/l1102.exe)
 Symmetrizing basis deriv contribution to polar:
 IMax=3 JMax=2 DiffMx= 0.00D+00
 Leave Link 1102 at Mon Aug  5 14:48:04 2019, MaxMem=  4294967296 cpu:               3.7 elap:               0.3
 (Enter /home/cwagen/sw/g16/g16/l1110.exe)
 Forming Gx(P) for the SCF density, NAtomX=    16.
 Integral derivatives from FoFJK, PRISM(SPDF).
 Do as many integral derivatives as possible in FoFJK.
 G2DrvN: MDV=    4294966008.
 G2DrvN: will do    17 centers at a time, making    1 passes.
 Calling FoFCou, ICntrl=  3107 FMM=F I1Cent=   0 AccDes= 0.00D+00.
 FoFJK:  IHMeth= 1 ICntrl=    3107 DoSepK=F KAlg= 0 I1Cent=           0 FoldK=F
 IRaf=         0 NMat=       1 IRICut=       1 DoRegI=T DoRafI=F ISym2E= 0 IDoP0=0 IntGTp=1.
 FoFCou: FMM=F IPFlag=           0 FMFlag=      100000 FMFlg1=           0
         NFxFlg=           0 DoJE=F BraDBF=F KetDBF=F FulRan=T
         wScrn=  0.000000 ICntrl=      3107 IOpCl=  0 I1Cent=           0 NGrid=           0
         NMat0=    1 NMatS0=      1 NMatT0=    0 NMatD0=    1 NMtDS0=    0 NMtDT0=    0
 Symmetry not used in FoFCou.
 End of G2Drv F.D. properties file   721 does not exist.
 End of G2Drv F.D. properties file   722 does not exist.
 End of G2Drv F.D. properties file   788 does not exist.
 Leave Link 1110 at Mon Aug  5 14:48:31 2019, MaxMem=  4294967296 cpu:             343.0 elap:              26.5
 (Enter /home/cwagen/sw/g16/g16/l1002.exe)
 Minotr:  Closed shell wavefunction.
          IDoAtm=1111111111111111
          Direct CPHF calculation.
          Differentiating once with respect to nuclear coordinates.
          Requested convergence is 1.0D-08 RMS, and 1.0D-07 maximum.
          Secondary convergence is 1.0D-12 RMS, and 1.0D-12 maximum.
          NewPWx=T KeepS1=F KeepF1=F KeepIn=T MapXYZ=F SortEE=F KeepMc=T.
         4734 words used for storage of precomputed grid.
 Keep R1 ints in memory in canonical form, NReq=29810462.
 FoFCou: FMM=F IPFlag=           0 FMFlag=           0 FMFlg1=           0
         NFxFlg=           0 DoJE=F BraDBF=F KetDBF=F FulRan=T
         wScrn=  0.000000 ICntrl=       600 IOpCl=  0 I1Cent=           0 NGrid=           0
         NMat0=    1 NMatS0=   5460 NMatT0=    0 NMatD0=    1 NMtDS0=    0 NMtDT0=    0
 Symmetry not used in FoFCou.
 Two-electron integral symmetry not used.
          MDV=    4294967296 using IRadAn=       1.
          Solving linear equations simultaneously, MaxMat=       0.
          There are    51 degrees of freedom in the 1st order CPHF.  IDoFFX=6 NUNeed=     0.
     45 vectors produced by pass  0 Test12= 3.76D-15 1.96D-09 XBig12= 2.31D-01 2.38D-01.
 AX will form    45 AO Fock derivatives at one time.
     45 vectors produced by pass  1 Test12= 3.76D-15 1.96D-09 XBig12= 5.17D-02 9.60D-02.
     45 vectors produced by pass  2 Test12= 3.76D-15 1.96D-09 XBig12= 3.42D-04 3.52D-03.
     45 vectors produced by pass  3 Test12= 3.76D-15 1.96D-09 XBig12= 6.36D-07 1.18D-04.
     45 vectors produced by pass  4 Test12= 3.76D-15 1.96D-09 XBig12= 6.88D-10 3.05D-06.
     20 vectors produced by pass  5 Test12= 3.76D-15 1.96D-09 XBig12= 3.65D-13 6.19D-08.
 InvSVY:  IOpt=1 It=  1 EMax= 3.33D-16
 Solved reduced A of dimension   245 with    51 vectors.
 End of Minotr F.D. properties file   721 does not exist.
 End of Minotr F.D. properties file   722 does not exist.
 End of Minotr F.D. properties file   788 does not exist.
 Leave Link 1002 at Mon Aug  5 14:49:08 2019, MaxMem=  4294967296 cpu:             489.9 elap:              37.8
 (Enter /home/cwagen/sw/g16/g16/l601.exe)
 Copying SCF densities to generalized density rwf, IOpCl= 0 IROHF=0.

 **********************************************************************

            Population analysis using the SCF density.

 **********************************************************************

 Orbital symmetries:
       Occupied  (A) (A) (A) (A) (A) (A) (A) (A) (A) (A) (A) (A)
                 (A) (A) (A) (A) (A) (A) (A) (A) (A) (A) (A) (A)
       Virtual   (A) (A) (A) (A) (A) (A) (A) (A) (A) (A) (A) (A)
                 (A) (A) (A) (A) (A) (A) (A) (A) (A) (A) (A) (A)
                 (A) (A) (A) (A) (A) (A) (A) (A) (A) (A) (A) (A)
                 (A) (A) (A) (A) (A) (A) (A) (A) (A) (A) (A) (A)
                 (A) (A) (A) (A) (A) (A) (A) (A) (A) (A) (A) (A)
                 (A) (A) (A) (A) (A) (A) (A) (A) (A) (A) (A) (A)
                 (A) (A) (A) (A) (A) (A) (A) (A)
 The electronic state is 1-A.
 Alpha  occ. eigenvalues --  -19.09096 -10.24773 -10.21931 -10.19492 -10.17732
 Alpha  occ. eigenvalues --  -10.16591  -0.98764  -0.81592  -0.73125  -0.69629
 Alpha  occ. eigenvalues --   -0.59618  -0.54772  -0.48874  -0.45789  -0.44053
 Alpha  occ. eigenvalues --   -0.43138  -0.40598  -0.38930  -0.38348  -0.37004
 Alpha  occ. eigenvalues --   -0.36227  -0.32934  -0.24133  -0.21780
 Alpha virt. eigenvalues --   -0.06311   0.08287   0.10745   0.11424   0.13190
 Alpha virt. eigenvalues --    0.14161   0.16144   0.16520   0.18209   0.19606
 Alpha virt. eigenvalues --    0.20258   0.22094   0.25667   0.27549   0.31300
 Alpha virt. eigenvalues --    0.32666   0.47813   0.51556   0.52148   0.53812
 Alpha virt. eigenvalues --    0.56489   0.57784   0.60743   0.62575   0.67113
 Alpha virt. eigenvalues --    0.68730   0.72023   0.74299   0.76052   0.79363
 Alpha virt. eigenvalues --    0.83034   0.83691   0.85310   0.86498   0.89696
 Alpha virt. eigenvalues --    0.91408   0.91888   0.92054   0.94494   0.97110
 Alpha virt. eigenvalues --    1.00260   1.03909   1.08260   1.13986   1.18561
 Alpha virt. eigenvalues --    1.26518   1.28396   1.33884   1.39126   1.47009
 Alpha virt. eigenvalues --    1.52954   1.54378   1.64463   1.69180   1.74240
 Alpha virt. eigenvalues --    1.77572   1.82404   1.85531   1.88711   1.94506
 Alpha virt. eigenvalues --    1.98277   2.02354   2.04574   2.09766   2.14546
 Alpha virt. eigenvalues --    2.17305   2.21165   2.22668   2.26265   2.27954
 Alpha virt. eigenvalues --    2.33113   2.35440   2.46592   2.53947   2.54286
 Alpha virt. eigenvalues --    2.62850   2.73362   2.77676   2.80976   2.97688
          Condensed to atoms (all electrons):
               1          2          3          4          5          6
     1  C    4.694548   0.318890   0.352830  -0.025283  -0.023659  -0.017194
     2  C    0.318890   5.322125  -0.104441   0.364973   0.360337   0.322841
     3  H    0.352830  -0.104441   0.715724  -0.001713   0.005606   0.006668
     4  H   -0.025283   0.364973  -0.001713   0.549500  -0.026047  -0.028540
     5  H   -0.023659   0.360337   0.005606  -0.026047   0.555013  -0.025718
     6  H   -0.017194   0.322841   0.006668  -0.028540  -0.025718   0.609492
     7  O    0.501837  -0.077398  -0.047026   0.000000   0.003376   0.003818
     8  C    0.072908  -0.030544  -0.034186   0.004014  -0.005431  -0.001283
     9  C   -0.016113  -0.016896   0.002821   0.000977  -0.000893   0.000941
    10  H   -0.005060   0.000359  -0.004807  -0.000064  -0.000200   0.000705
    11  H   -0.019444   0.005534  -0.017420  -0.000086  -0.000165  -0.000111
    12  C   -0.003871   0.000482  -0.000533  -0.000055   0.000282  -0.000004
    13  H   -0.002743   0.001989  -0.000091   0.000001   0.000026   0.001035
    14  H    0.000389   0.000002  -0.000001   0.000000  -0.000029  -0.000012
    15  H   -0.007108  -0.002485   0.002793  -0.000185   0.002507   0.000052
    16  H   -0.000067   0.000005  -0.000073   0.000002  -0.000019   0.000003
               7          8          9         10         11         12
     1  C    0.501837   0.072908  -0.016113  -0.005060  -0.019444  -0.003871
     2  C   -0.077398  -0.030544  -0.016896   0.000359   0.005534   0.000482
     3  H   -0.047026  -0.034186   0.002821  -0.004807  -0.017420  -0.000533
     4  H    0.000000   0.004014   0.000977  -0.000064  -0.000086  -0.000055
     5  H    0.003376  -0.005431  -0.000893  -0.000200  -0.000165   0.000282
     6  H    0.003818  -0.001283   0.000941   0.000705  -0.000111  -0.000004
     7  O    8.097487  -0.042889  -0.030287   0.001883   0.000083  -0.021546
     8  C   -0.042889   5.218981   0.572492   0.354956   0.380807  -0.055786
     9  C   -0.030287   0.572492   4.860642  -0.031033  -0.041127   0.424093
    10  H    0.001883   0.354956  -0.031033   0.558975  -0.034850   0.005629
    11  H    0.000083   0.380807  -0.041127  -0.034850   0.538534  -0.005469
    12  C   -0.021546  -0.055786   0.424093   0.005629  -0.005469   5.187447
    13  H   -0.000180  -0.046123   0.376958  -0.007572   0.004959  -0.048101
    14  H    0.000493   0.004998  -0.026120  -0.000164   0.000005   0.362770
    15  H    0.073638  -0.020918  -0.042583   0.000238  -0.000165   0.305972
    16  H   -0.001606  -0.005672  -0.026607  -0.000232   0.002438   0.369702
              13         14         15         16
     1  C   -0.002743   0.000389  -0.007108  -0.000067
     2  C    0.001989   0.000002  -0.002485   0.000005
     3  H   -0.000091  -0.000001   0.002793  -0.000073
     4  H    0.000001   0.000000  -0.000185   0.000002
     5  H    0.000026  -0.000029   0.002507  -0.000019
     6  H    0.001035  -0.000012   0.000052   0.000003
     7  O   -0.000180   0.000493   0.073638  -0.001606
     8  C   -0.046123   0.004998  -0.020918  -0.005672
     9  C    0.376958  -0.026120  -0.042583  -0.026607
    10  H   -0.007572  -0.000164   0.000238  -0.000232
    11  H    0.004959   0.000005  -0.000165   0.002438
    12  C   -0.048101   0.362770   0.305972   0.369702
    13  H    0.565081  -0.006299   0.002204   0.004054
    14  H   -0.006299   0.555355  -0.014341  -0.031739
    15  H    0.002204  -0.014341   0.480753  -0.023844
    16  H    0.004054  -0.031739  -0.023844   0.540105
 Mulliken charges:
               1
     1  C    0.179141
     2  C   -0.465772
     3  H    0.123851
     4  H    0.162506
     5  H    0.155014
     6  H    0.127309
     7  O   -0.461683
     8  C   -0.366323
     9  C   -0.007266
    10  H    0.161237
    11  H    0.186478
    12  C   -0.521011
    13  H    0.154802
    14  H    0.154694
    15  H    0.243474
    16  H    0.173548
 Sum of Mulliken charges =   0.00000
 Mulliken charges with hydrogens summed into heavy atoms:
               1
     1  C    0.302993
     2  C   -0.020944
     7  O   -0.461683
     8  C   -0.018608
     9  C    0.147536
    12  C    0.050706
 APT charges:
               1
     1  C   -0.416844
     2  C   -1.092874
     3  H    0.395878
     4  H    0.535803
     5  H    0.284059
     6  H    0.364617
     7  O   -0.327185
     8  C   -0.845877
     9  C   -0.307041
    10  H    0.447791
    11  H    0.416968
    12  C   -1.121975
    13  H    0.431657
    14  H    0.530835
    15  H    0.229093
    16  H    0.475095
 Sum of APT charges =   0.00000
 APT charges with hydrogens summed into heavy atoms:
               1
     1  C   -0.020966
     2  C    0.091605
     7  O   -0.327185
     8  C    0.018881
     9  C    0.124617
    12  C    0.113048
 Electronic spatial extent (au):  <R**2>=            627.6099
 Charge=              0.0000 electrons
 Dipole moment (field-independent basis, Debye):
    X=              0.9971    Y=             -2.9005    Z=             -0.2025  Tot=              3.0738
 Quadrupole moment (field-independent basis, Debye-Ang):
   XX=            -36.1955   YY=            -41.9417   ZZ=            -36.4238
   XY=              2.4942   XZ=             -0.8458   YZ=             -0.6434
 Traceless Quadrupole moment (field-independent basis, Debye-Ang):
   XX=              1.9915   YY=             -3.7547   ZZ=              1.7632
   XY=              2.4942   XZ=             -0.8458   YZ=             -0.6434
 Octapole moment (field-independent basis, Debye-Ang**2):
  XXX=             -3.2524  YYY=             -4.4657  ZZZ=              2.2457  XYY=              2.4861
  XXY=              3.9411  XXZ=             -0.7309  XZZ=              1.0798  YZZ=              1.0122
  YYZ=             -1.4620  XYZ=              2.4494
 Hexadecapole moment (field-independent basis, Debye-Ang**3):
 XXXX=           -454.4458 YYYY=           -211.2718 ZZZZ=           -155.7519 XXXY=             -0.5202
 XXXZ=             -2.2046 YYYX=              3.4752 YYYZ=             -0.8134 ZZZX=             -4.1541
 ZZZY=              1.3923 XXYY=           -114.8378 XXZZ=           -101.2671 YYZZ=            -61.9746
 XXYZ=              1.4840 YYXZ=             -1.9661 ZZXY=             -0.6339
 N-N= 2.451973899099D+02 E-N=-1.122944387926D+03  KE= 2.700702354154D+02
  Exact polarizability:   0.000   0.000   0.000   0.000   0.000   0.000
 Approx polarizability: 113.537 -17.579 103.288 -21.104   4.405  79.343
 No NMR shielding tensors so no spin-rotation constants.
 Leave Link  601 at Mon Aug  5 14:49:10 2019, MaxMem=  4294967296 cpu:              19.6 elap:               1.6
 (Enter /home/cwagen/sw/g16/g16/l701.exe)
 ... and contract with generalized density number  0.
 Compute integral second derivatives.
 R6Disp: Adding Grimme-D3(BJ) dispersion energy 2nd derivatives to the Hessian.
   1 Symmetry operations used in ECPInt.
 ECPInt:  NShTT=     990 NPrTT=    5809 LenC2=     988 LenP2D=    4347.
 LDataN:  DoStor=T MaxTD1= 6 Len=  172
 Leave Link  701 at Mon Aug  5 14:49:12 2019, MaxMem=  4294967296 cpu:              19.0 elap:               1.5
 (Enter /home/cwagen/sw/g16/g16/l702.exe)
 L702 exits ... SP integral derivatives will be done elsewhere.
 Leave Link  702 at Mon Aug  5 14:49:12 2019, MaxMem=  4294967296 cpu:               1.2 elap:               0.1
 (Enter /home/cwagen/sw/g16/g16/l703.exe)
 Integral derivatives from FoFJK, PRISM(SPDF).
 Compute integral second derivatives, UseDBF=F ICtDFT=           0.
 Calling FoFJK, ICntrl=    100147 FMM=F ISym2X=0 I1Cent= 0 IOpClX= 0 NMat=1 NMatS=1 NMatT=0.
 FoFJK:  IHMeth= 1 ICntrl=  100147 DoSepK=F KAlg= 0 I1Cent=           0 FoldK=F
 IRaf=         0 NMat=       1 IRICut=       1 DoRegI=T DoRafI=F ISym2E= 0 IDoP0=0 IntGTp=1.
 FoFCou: FMM=F IPFlag=           0 FMFlag=      100000 FMFlg1=         800
         NFxFlg=           0 DoJE=F BraDBF=F KetDBF=F FulRan=T
         wScrn=  0.000000 ICntrl=    100147 IOpCl=  0 I1Cent=           0 NGrid=           0
         NMat0=    1 NMatS0=      1 NMatT0=    0 NMatD0=    1 NMtDS0=    0 NMtDT0=    0
 Symmetry not used in FoFCou.
 Leave Link  703 at Mon Aug  5 14:49:42 2019, MaxMem=  4294967296 cpu:             391.3 elap:              30.2
 (Enter /home/cwagen/sw/g16/g16/l716.exe)
 Dipole        = 3.92304692D-01-1.14115393D+00-7.96847378D-02
 Polarizability= 0.00000000D+00 0.00000000D+00 0.00000000D+00
                 0.00000000D+00 0.00000000D+00 0.00000000D+00
 ***** Axes restored to original set *****
 -------------------------------------------------------------------
 Center     Atomic                   Forces (Hartrees/Bohr)
 Number     Number              X              Y              Z
 -------------------------------------------------------------------
      1        6           0.029318912    0.021930768    0.010912316
      2        6           0.000003858   -0.000005812    0.000001934
      3        1           0.000002790    0.000010631    0.000003214
      4        1           0.000000196   -0.000002268    0.000004408
      5        1          -0.000002919    0.000002131   -0.000001897
      6        1          -0.000003852   -0.000001858    0.000002531
      7        8           0.000009120   -0.000038429   -0.000000735
      8        6          -0.029337449   -0.021902621   -0.010923251
      9        6           0.000012410    0.000019688    0.000021154
     10        1           0.000002938   -0.000000724    0.000001935
     11        1          -0.000000622   -0.000002782   -0.000002196
     12        6          -0.000013979   -0.000018994   -0.000008600
     13        1          -0.000003028   -0.000005435   -0.000009913
     14        1           0.000000438    0.000002011   -0.000002261
     15        1           0.000009694    0.000007709    0.000003376
     16        1           0.000001493    0.000005986   -0.000002014
 -------------------------------------------------------------------
 Cartesian Forces:  Max     0.029337449 RMS     0.007798728
 FormGI is forming the generalized inverse of G from B-inverse, IUseBI=4.
 Leave Link  716 at Mon Aug  5 14:49:42 2019, MaxMem=  4294967296 cpu:               4.3 elap:               0.4
 (Enter /home/cwagen/sw/g16/g16/l103.exe)

 GradGradGradGradGradGradGradGradGradGradGradGradGradGradGradGradGradGrad
 Berny optimization.
 Red2BG is reusing G-inverse.
 Internal  Forces:  Max     0.035625113 RMS     0.004073823
 Search for a saddle point.
 Step number   1 out of a maximum of   92
 All quantities printed in internal units (Hartrees-Bohrs-Radians)
 Swapping is turned off.
 Second derivative matrix not updated -- analytic derivatives used.
 ITU=  0
     Eigenvalues ---   -0.00575   0.00187   0.00262   0.00434   0.01121
     Eigenvalues ---    0.01468   0.02472   0.03199   0.03869   0.04252
     Eigenvalues ---    0.04462   0.04702   0.04858   0.05264   0.05636
     Eigenvalues ---    0.06075   0.06479   0.06990   0.08548   0.09327
     Eigenvalues ---    0.10365   0.10534   0.12176   0.12502   0.13044
     Eigenvalues ---    0.15120   0.15615   0.17858   0.26543   0.26847
     Eigenvalues ---    0.29154   0.32739   0.33754   0.34070   0.34252
     Eigenvalues ---    0.34820   0.35218   0.35679   0.35750   0.36020
     Eigenvalues ---    0.48536   0.63950
 Eigenvectors required to have negative eigenvalues:
                          R4        R8        D27       D11       D26
   1                    0.55988   0.49296   0.23142  -0.16578  -0.16031
                          D3        A16       A5        D2        D1
   1                    0.14862  -0.14160  -0.14036   0.13600   0.13510
 RFO step:  Lambda0=1.870595611D-02 Lambda=-1.32256828D-02.
 Linear search not attempted -- option 19 set.
 Maximum step size (   0.300) exceeded in Quadratic search.
    -- Step size scaled by   0.340
 Iteration  1 RMS(Cart)=  0.03198078 RMS(Int)=  0.00724637
 Iteration  2 RMS(Cart)=  0.00862244 RMS(Int)=  0.00049066
 Iteration  3 RMS(Cart)=  0.00002044 RMS(Int)=  0.00049035
 Iteration  4 RMS(Cart)=  0.00000001 RMS(Int)=  0.00049035
 ITry= 1 IFail=0 DXMaxC= 1.30D-01 DCOld= 1.00D+10 DXMaxT= 3.00D-01 DXLimC= 3.00D+00 Rises=F
 Variable       Old X    -DE/DX   Delta X   Delta X   Delta X     New X
                                 (Linear)    (Quad)   (Total)
    R1        2.90010   0.00000   0.00000   0.00204   0.00204   2.90214
    R2        2.10042   0.00000   0.00000  -0.00093  -0.00093   2.09949
    R3        2.37821  -0.00059   0.00000   0.01861   0.01799   2.39620
    R4        3.52225   0.03563   0.00000  -0.04875  -0.04932   3.47293
    R5        2.07234   0.00000   0.00000  -0.00100  -0.00100   2.07135
    R6        2.06656   0.00000   0.00000   0.00074   0.00074   2.06730
    R7        2.07103   0.00000   0.00000   0.00074   0.00074   2.07177
    R8        3.61978   0.00158   0.00000  -0.26585  -0.26563   3.35416
    R9        2.59661  -0.00038   0.00000   0.01668   0.01666   2.61328
   R10        2.05532   0.00000   0.00000   0.00133   0.00133   2.05665
   R11        2.05369   0.00000   0.00000   0.00208   0.00208   2.05577
   R12        2.77564   0.00020   0.00000  -0.01798  -0.01743   2.75821
   R13        2.05768   0.00000   0.00000   0.00030   0.00030   2.05797
   R14        2.06334   0.00000   0.00000  -0.00103  -0.00103   2.06231
   R15        2.13030   0.00240   0.00000   0.02728   0.02787   2.15817
   R16        2.07008   0.00000   0.00000  -0.00046  -0.00046   2.06961
    A1        1.95013  -0.00041   0.00000  -0.00855  -0.00968   1.94045
    A2        2.07734   0.00106   0.00000  -0.01390  -0.01421   2.06313
    A3        1.86593   0.00074   0.00000   0.01548   0.01556   1.88149
    A4        2.04862  -0.00009   0.00000  -0.02103  -0.02181   2.02682
    A5        1.50687   0.00092   0.00000   0.04207   0.04257   1.54944
    A6        1.91941  -0.00245   0.00000   0.01019   0.00989   1.92931
    A7        1.87914   0.00000   0.00000   0.00200   0.00200   1.88114
    A8        1.92730  -0.00001   0.00000   0.00111   0.00111   1.92841
    A9        1.97264   0.00000   0.00000  -0.00049  -0.00049   1.97215
   A10        1.87778   0.00000   0.00000  -0.00122  -0.00122   1.87656
   A11        1.88946   0.00000   0.00000   0.00201   0.00201   1.89147
   A12        1.91443   0.00000   0.00000  -0.00332  -0.00332   1.91111
   A13        1.78651  -0.00043   0.00000  -0.00473  -0.00552   1.78099
   A14        1.77340  -0.00363   0.00000  -0.00131  -0.00264   1.77075
   A15        1.79753   0.00240   0.00000   0.03146   0.03173   1.82926
   A16        1.65226   0.00013   0.00000   0.03657   0.03727   1.68953
   A17        2.07172   0.00048   0.00000  -0.00708  -0.00720   2.06452
   A18        2.06040   0.00052   0.00000  -0.01600  -0.01630   2.04410
   A19        2.00209  -0.00031   0.00000  -0.01441  -0.01589   1.98620
   A20        2.09186  -0.00041   0.00000  -0.01602  -0.01579   2.07607
   A21        2.07333   0.00060   0.00000  -0.00010  -0.00090   2.07244
   A22        2.07406  -0.00026   0.00000   0.00245   0.00190   2.07596
   A23        1.99740  -0.00021   0.00000   0.01408   0.01342   2.01081
   A24        1.79621   0.00225   0.00000  -0.03336  -0.03172   1.76449
   A25        1.97473  -0.00071   0.00000   0.01056   0.00995   1.98468
   A26        1.93510  -0.00155   0.00000   0.00892   0.00875   1.94385
   A27        1.92295   0.00015   0.00000   0.01146   0.01133   1.93429
   A28        1.82571   0.00015   0.00000  -0.01741  -0.01820   1.80751
   A29        2.37456   0.00429   0.00000   0.08336   0.08388   2.45843
    D1        1.21271  -0.00017   0.00000  -0.03327  -0.03322   1.17949
    D2       -3.02502  -0.00017   0.00000  -0.03296  -0.03290  -3.05793
    D3       -0.87319  -0.00018   0.00000  -0.03681  -0.03676  -0.90994
    D4       -1.26453  -0.00086   0.00000   0.03490   0.03453  -1.23000
    D5        0.78093  -0.00086   0.00000   0.03521   0.03484   0.81577
    D6        2.93277  -0.00086   0.00000   0.03136   0.03099   2.96375
    D7        2.83284   0.00104   0.00000   0.01767   0.01798   2.85081
    D8       -1.40490   0.00103   0.00000   0.01798   0.01829  -1.38660
    D9        0.74694   0.00103   0.00000   0.01413   0.01444   0.76138
   D10       -1.45378  -0.00087   0.00000  -0.03406  -0.03425  -1.48803
   D11        2.38878  -0.00151   0.00000   0.03309   0.03213   2.42091
   D12        0.70608  -0.00121   0.00000  -0.01434  -0.01503   0.69105
   D13        1.12276   0.00003   0.00000   0.03411   0.03394   1.15670
   D14       -1.03104   0.00005   0.00000   0.02991   0.03010  -1.00094
   D15       -3.06780  -0.00016   0.00000   0.02753   0.02715  -3.04065
   D16        3.07081  -0.00009   0.00000   0.03865   0.03860   3.10941
   D17        0.91701  -0.00007   0.00000   0.03445   0.03476   0.95177
   D18       -1.11975  -0.00028   0.00000   0.03207   0.03181  -1.08794
   D19       -1.15567  -0.00013   0.00000   0.03322   0.03336  -1.12230
   D20        2.97372  -0.00011   0.00000   0.02902   0.02952   3.00324
   D21        0.93696  -0.00032   0.00000   0.02665   0.02657   0.96353
   D22       -0.59422  -0.00153   0.00000  -0.01215  -0.01272  -0.60693
   D23        1.21977  -0.00192   0.00000  -0.04039  -0.04001   1.17976
   D24       -1.60427  -0.00163   0.00000   0.00707   0.00736  -1.59692
   D25       -3.10919  -0.00122   0.00000  -0.00593  -0.00621  -3.11540
   D26        0.34995  -0.00094   0.00000   0.04153   0.04116   0.39111
   D27       -0.55605  -0.00011   0.00000  -0.07755  -0.07691  -0.63297
   D28        2.90309   0.00018   0.00000  -0.03010  -0.02955   2.87354
   D29       -3.05498  -0.00071   0.00000   0.04181   0.04191  -3.01307
   D30       -0.95392  -0.00122   0.00000   0.03813   0.03856  -0.91537
   D31        1.00599  -0.00010   0.00000   0.00373   0.00401   1.00999
   D32       -0.23107  -0.00084   0.00000  -0.00613  -0.00607  -0.23714
   D33        1.86999  -0.00136   0.00000  -0.00981  -0.00942   1.86056
   D34       -2.45329  -0.00023   0.00000  -0.04421  -0.04397  -2.49726
   D35        0.51129  -0.00068   0.00000   0.02805   0.02854   0.53983
   D36        2.65464  -0.00038   0.00000   0.02935   0.02988   2.68452
   D37       -1.55613  -0.00090   0.00000   0.03738   0.03710  -1.51903
         Item               Value     Threshold  Converged?
 Maximum Force            0.035625     0.000450     NO 
 RMS     Force            0.004074     0.000300     NO 
 Maximum Displacement     0.129769     0.001800     NO 
 RMS     Displacement     0.037746     0.001200     NO 
 Predicted change in Energy= 2.110125D-03
 Lowest energy point so far.  Saving SCF results.
 GradGradGradGradGradGradGradGradGradGradGradGradGradGradGradGradGradGrad

 Leave Link  103 at Mon Aug  5 14:49:49 2019, MaxMem=  4294967296 cpu:              88.4 elap:               6.8
 (Enter /home/cwagen/sw/g16/g16/l202.exe)
                          Input orientation:                          
 ---------------------------------------------------------------------
 Center     Atomic      Atomic             Coordinates (Angstroms)
 Number     Number       Type             X           Y           Z
 ---------------------------------------------------------------------
      1          6           0        1.000489    0.214726   -0.386484
      2          6           0        1.688949   -0.473581    0.801279
      3          1           0        1.519843   -0.017114   -1.340870
      4          1           0        2.673110   -0.009249    0.932720
      5          1           0        1.121111   -0.307908    1.721537
      6          1           0        1.832212   -1.549708    0.648400
      7          8           0        0.608469    1.411756   -0.240554
      8          6           0       -0.390098   -0.857701   -0.928379
      9          6           0       -1.234031   -0.786500    0.164818
     10          1           0        0.071675   -1.815126   -1.161978
     11          1           0       -0.665795   -0.277429   -1.806294
     12          6           0       -1.887049    0.482246    0.471789
     13          1           0       -1.135291   -1.532467    0.952075
     14          1           0       -2.437796    0.505672    1.413662
     15          1           0       -0.991354    1.190374    0.495637
     16          1           0       -2.500462    0.871518   -0.347748
 ---------------------------------------------------------------------
                    Distance matrix (angstroms):
                    1          2          3          4          5
     1  C    0.000000
     2  C    1.535749   0.000000
     3  H    1.111005   2.196762   0.000000
     4  H    2.141990   1.096109   2.549372   0.000000
     5  H    2.175189   1.093967   3.101917   1.766390   0.000000
     6  H    2.208161   1.096332   2.530536   1.777910   1.788675
     7  O    1.268013   2.409845   2.020636   2.767412   2.658919
     8  C    1.837793   2.731611   2.127113   3.683314   3.099691
     9  C    2.509874   3.007792   3.231543   4.057037   2.863410
    10  H    2.363131   2.875708   2.315608   3.796896   3.418726
    11  H    2.243787   3.518910   2.249755   4.326939   3.954688
    12  C    3.024248   3.716172   3.891273   4.609672   3.351901
    13  H    3.066917   3.019985   3.821469   4.101766   2.680105
    14  H    3.891912   4.285321   4.850119   5.159245   3.663675
    15  H    2.386937   3.169572   3.337199   3.880520   2.865343
    16  H    3.562237   4.547606   4.235423   5.401962   4.334602
                    6          7          8          9         10
     6  H    0.000000
     7  O    3.325366   0.000000
     8  C    2.811364   2.573067   0.000000
     9  C    3.196589   2.896802   1.382886   0.000000
    10  H    2.539174   3.398521   1.088331   2.126812   0.000000
    11  H    3.726158   2.632230   1.087869   2.113605   1.823052
    12  C    4.241808   2.756634   2.448835   1.459583   3.432742
    13  H    2.983050   3.623743   2.132306   1.089032   2.450690
    14  H    4.800332   3.582897   3.396618   2.162954   4.279892
    15  H    3.937501   1.774942   2.565920   2.019001   3.593153
    16  H    5.062283   3.157341   2.789439   2.148393   3.807481
                   11         12         13         14         15
    11  H    0.000000
    12  C    2.694110   0.000000
    13  H    3.066618   2.203381   0.000000
    14  H    3.757838   1.091327   2.462437   0.000000
    15  H    2.749422   1.142052   2.764583   1.844934   0.000000
    16  H    2.610256   1.095193   3.054894   1.800092   1.757946
                   16
    16  H    0.000000
 Stoichiometry    C5H10O
 Framework group  C1[X(C5H10O)]
 Deg. of freedom    42
 Full point group                 C1      NOp   1
 RotChk:  IX=0 Diff= 6.37D-02
 Largest Abelian subgroup         C1      NOp   1
 Largest concise Abelian subgroup C1      NOp   1
                         Standard orientation:                         
 ---------------------------------------------------------------------
 Center     Atomic      Atomic             Coordinates (Angstroms)
 Number     Number       Type             X           Y           Z
 ---------------------------------------------------------------------
      1          6           0       -1.005968    0.206867    0.415437
      2          6           0       -1.713886   -0.426195   -0.791464
      3          1           0       -1.514338   -0.062726    1.365811
      4          1           0       -2.696830    0.048748   -0.889978
      5          1           0       -1.156996   -0.224434   -1.711208
      6          1           0       -1.861685   -1.507072   -0.682806
      7          8           0       -0.608614    1.406868    0.315607
      8          6           0        0.384978   -0.895402    0.892673
      9          6           0        1.215126   -0.782148   -0.207509
     10          1           0       -0.079535   -1.859387    1.091236
     11          1           0        0.675515   -0.354746    1.790859
     12          6           0        1.871804    0.494954   -0.468595
     13          1           0        1.101694   -1.493198   -1.024535
     14          1           0        2.410462    0.555619   -1.415781
     15          1           0        0.980187    1.208376   -0.450378
     16          1           0        2.498109    0.845425    0.358666
 ---------------------------------------------------------------------
 Rotational constants (GHZ):           4.9428663           2.7712830           2.4176441
 Leave Link  202 at Mon Aug  5 14:49:49 2019, MaxMem=  4294967296 cpu:               2.0 elap:               0.2
 (Enter /home/cwagen/sw/g16/g16/l301.exe)
 Basis read from rwf:  (5D, 7F)
 Pseudo-potential data read from rwf file.
 There are   110 symmetry adapted cartesian basis functions of A   symmetry.
 There are   104 symmetry adapted basis functions of A   symmetry.
   104 basis functions,   208 primitive gaussians,   110 cartesian basis functions
    24 alpha electrons       24 beta electrons
       nuclear repulsion energy       246.1317430508 Hartrees.
 IExCor=  402 DFT=T Ex+Corr=B3LYP ExCW=0 ScaHFX=  0.200000
 ScaDFX=  0.800000  0.720000  1.000000  0.810000 ScalE2=  1.000000  1.000000
 IRadAn=      5 IRanWt=     -1 IRanGd=            0 ICorTp=0 IEmpDi=141
 NAtoms=   16 NActive=   16 NUniq=   16 SFac= 1.00D+00 NAtFMM=   60 NAOKFM=F Big=F
 Integral buffers will be    131072 words long.
 Raffenetti 2 integral format.
 Two-electron integral symmetry is turned on.
 R6Disp:  Grimme-D3(BJ) Dispersion energy=       -0.0217319999 Hartrees.
 Nuclear repulsion after empirical dispersion term =      246.1100110510 Hartrees.
 No density basis found on file   724.
 Leave Link  301 at Mon Aug  5 14:49:50 2019, MaxMem=  4294967296 cpu:               1.9 elap:               0.2
 (Enter /home/cwagen/sw/g16/g16/l302.exe)
 NPDir=0 NMtPBC=     1 NCelOv=     1 NCel=       1 NClECP=     1 NCelD=      1
         NCelK=      1 NCelE2=     1 NClLst=     1 CellRange=     0.0.
 One-electron integrals computed using PRISM.
 One-electron integral symmetry used in STVInt
   1 Symmetry operations used in ECPInt.
 ECPInt:  NShTT=     990 NPrTT=    5809 LenC2=     988 LenP2D=    4354.
 LDataN:  DoStor=T MaxTD1= 4 Len=   56
 NBasis=   104 RedAO= T EigKep=  5.08D-03  NBF=   104
 NBsUse=   104 1.00D-06 EigRej= -1.00D+00 NBFU=   104
 Precomputing XC quadrature grid using
 IXCGrd= 4 IRadAn=           5 IRanWt=          -1 IRanGd=           0 AccXCQ= 0.00D+00.
 Generated NRdTot=       0 NPtTot=           0 NUsed=           0 NTot=          32
 NSgBfM=   110   110   110   110   110 MxSgAt=    16 MxSgA2=    16.
 Leave Link  302 at Mon Aug  5 14:49:52 2019, MaxMem=  4294967296 cpu:              30.5 elap:               2.4
 (Enter /home/cwagen/sw/g16/g16/l303.exe)
 DipDrv:  MaxL=1.
 Leave Link  303 at Mon Aug  5 14:49:53 2019, MaxMem=  4294967296 cpu:               6.7 elap:               0.5
 (Enter /home/cwagen/sw/g16/g16/l401.exe)
 Initial guess from the checkpoint file:  "/scratch/users/cwagen/cwagen_propene_acetaldehyde_TS/Gau-50243.chk"
 B after Tr=     0.000000    0.000000    0.000000
         Rot=    0.999798   -0.018583   -0.005895    0.004919 Ang=  -2.30 deg.
 Guess basis will be translated and rotated to current coordinates.
 JPrj=2 DoOrth=T DoCkMO=T.
 Generating alternative initial guess.
 ExpMin= 1.61D-01 ExpMax= 5.48D+03 ExpMxC= 8.25D+02 IAcc=2 IRadAn=         4 AccDes= 0.00D+00
 Harris functional with IExCor=  402 and IRadAn=       4 diagonalized for initial guess.
 HarFok:  IExCor=  402 AccDes= 0.00D+00 IRadAn=         4 IDoV= 1 UseB2=F ITyADJ=14
 ICtDFT=  3500011 ScaDFX=  1.000000  1.000000  1.000000  1.000000
 FoFCou: FMM=F IPFlag=           0 FMFlag=      100000 FMFlg1=           0
         NFxFlg=           0 DoJE=T BraDBF=F KetDBF=T FulRan=T
         wScrn=  0.000000 ICntrl=       500 IOpCl=  0 I1Cent=   200000004 NGrid=           0
         NMat0=    1 NMatS0=      1 NMatT0=    0 NMatD0=    1 NMtDS0=    0 NMtDT0=    0
 Petite list used in FoFCou.
 Harris En= -271.763190208050    
 Leave Link  401 at Mon Aug  5 14:49:56 2019, MaxMem=  4294967296 cpu:              48.7 elap:               3.8
 (Enter /home/cwagen/sw/g16/g16/l502.exe)
 Integral symmetry usage will be decided dynamically.
 Closed shell SCF:
 Using DIIS extrapolation, IDIIS=  1040.
 NGot=  4294967296 LenX=  4294939860 LenY=  4294927319
 Requested convergence on RMS density matrix=1.00D-08 within 128 cycles.
 Requested convergence on MAX density matrix=1.00D-06.
 Requested convergence on             energy=1.00D-06.
 No special actions if energy rises.
 Fock matrices will be formed incrementally for  20 cycles.
 Integral accuracy reduced to 1.0D-05 until final iterations.

 Cycle   1  Pass 0  IDiag  1:
 FoFJK:  IHMeth= 1 ICntrl=       0 DoSepK=F KAlg= 0 I1Cent=           0 FoldK=F
 IRaf= 990000000 NMat=       1 IRICut=       1 DoRegI=T DoRafI=F ISym2E= 0 IDoP0=0 IntGTp=1.
 FoFCou: FMM=F IPFlag=           0 FMFlag=      100000 FMFlg1=           0
         NFxFlg=           0 DoJE=F BraDBF=F KetDBF=F FulRan=T
         wScrn=  0.000000 ICntrl=         0 IOpCl=  0 I1Cent=           0 NGrid=           0
         NMat0=    1 NMatS0=      1 NMatT0=    0 NMatD0=    1 NMtDS0=    0 NMtDT0=    0
 Symmetry not used in FoFCou.
 E= -271.699980597786    
 DIIS: error= 2.19D-03 at cycle   1 NSaved=   1.
 NSaved= 1 IEnMin= 1 EnMin= -271.699980597786     IErMin= 1 ErrMin= 2.19D-03
 ErrMax= 2.19D-03  0.00D+00 EMaxC= 1.00D-01 BMatC= 1.40D-03 BMatP= 1.40D-03
 IDIUse=3 WtCom= 9.78D-01 WtEn= 2.19D-02
 Coeff-Com:  0.100D+01
 Coeff-En:   0.100D+01
 Coeff:      0.100D+01
 Gap=     0.655 Goal=   None    Shift=    0.000
 GapD=    0.655 DampG=2.000 DampE=1.000 DampFc=2.0000 IDamp=-1.
 RMSDP=7.63D-04 MaxDP=8.58D-03              OVMax= 2.94D-02

 Cycle   2  Pass 0  IDiag  1:
 RMSU=  7.63D-04    CP:  1.00D+00
 E= -271.703049428196     Delta-E=       -0.003068830410 Rises=F Damp=F
 DIIS: error= 1.31D-03 at cycle   2 NSaved=   2.
 NSaved= 2 IEnMin= 2 EnMin= -271.703049428196     IErMin= 2 ErrMin= 1.31D-03
 ErrMax= 1.31D-03  0.00D+00 EMaxC= 1.00D-01 BMatC= 1.19D-04 BMatP= 1.40D-03
 IDIUse=3 WtCom= 9.87D-01 WtEn= 1.31D-02
 Coeff-Com:  0.331D-01 0.967D+00
 Coeff-En:   0.000D+00 0.100D+01
 Coeff:      0.327D-01 0.967D+00
 Gap=     0.148 Goal=   None    Shift=    0.000
 RMSDP=3.74D-04 MaxDP=6.04D-03 DE=-3.07D-03 OVMax= 2.08D-02

 Cycle   3  Pass 0  IDiag  1:
 RMSU=  3.72D-04    CP:  1.00D+00  1.04D+00
 E= -271.702680414069     Delta-E=        0.000369014127 Rises=F Damp=F
 DIIS: error= 2.93D-03 at cycle   3 NSaved=   3.
 NSaved= 3 IEnMin= 2 EnMin= -271.703049428196     IErMin= 2 ErrMin= 1.31D-03
 ErrMax= 2.93D-03  0.00D+00 EMaxC= 1.00D-01 BMatC= 4.91D-04 BMatP= 1.19D-04
 IDIUse=3 WtCom= 1.56D-01 WtEn= 8.44D-01
 Coeff-Com: -0.369D-01 0.709D+00 0.328D+00
 Coeff-En:   0.000D+00 0.739D+00 0.261D+00
 Coeff:     -0.575D-02 0.734D+00 0.272D+00
 Gap=     0.152 Goal=   None    Shift=    0.000
 RMSDP=2.13D-04 MaxDP=4.53D-03 DE= 3.69D-04 OVMax= 1.42D-02

 Cycle   4  Pass 0  IDiag  1:
 RMSU=  8.05D-05    CP:  1.00D+00  1.09D+00  4.81D-01
 E= -271.703204891171     Delta-E=       -0.000524477102 Rises=F Damp=F
 DIIS: error= 2.44D-04 at cycle   4 NSaved=   4.
 NSaved= 4 IEnMin= 4 EnMin= -271.703204891171     IErMin= 4 ErrMin= 2.44D-04
 ErrMax= 2.44D-04  0.00D+00 EMaxC= 1.00D-01 BMatC= 1.13D-05 BMatP= 1.19D-04
 IDIUse=3 WtCom= 9.98D-01 WtEn= 2.44D-03
 Coeff-Com: -0.259D-01 0.326D+00 0.110D+00 0.590D+00
 Coeff-En:   0.000D+00 0.000D+00 0.000D+00 0.100D+01
 Coeff:     -0.258D-01 0.325D+00 0.109D+00 0.591D+00
 Gap=     0.152 Goal=   None    Shift=    0.000
 RMSDP=4.17D-05 MaxDP=7.43D-04 DE=-5.24D-04 OVMax= 2.23D-03

 Cycle   5  Pass 0  IDiag  1:
 RMSU=  3.25D-05    CP:  1.00D+00  1.10D+00  4.39D-01  7.95D-01
 E= -271.703215749480     Delta-E=       -0.000010858310 Rises=F Damp=F
 DIIS: error= 1.71D-04 at cycle   5 NSaved=   5.
 NSaved= 5 IEnMin= 5 EnMin= -271.703215749480     IErMin= 5 ErrMin= 1.71D-04
 ErrMax= 1.71D-04  0.00D+00 EMaxC= 1.00D-01 BMatC= 3.00D-06 BMatP= 1.13D-05
 IDIUse=3 WtCom= 9.98D-01 WtEn= 1.71D-03
 Coeff-Com: -0.103D-01 0.817D-01 0.108D-01 0.371D+00 0.547D+00
 Coeff-En:   0.000D+00 0.000D+00 0.000D+00 0.118D+00 0.882D+00
 Coeff:     -0.103D-01 0.816D-01 0.108D-01 0.370D+00 0.548D+00
 Gap=     0.152 Goal=   None    Shift=    0.000
 RMSDP=1.71D-05 MaxDP=3.12D-04 DE=-1.09D-05 OVMax= 5.72D-04

 Cycle   6  Pass 0  IDiag  1:
 RMSU=  1.14D-05    CP:  1.00D+00  1.11D+00  4.43D-01  9.05D-01  7.42D-01
 E= -271.703218214053     Delta-E=       -0.000002464572 Rises=F Damp=F
 DIIS: error= 3.24D-05 at cycle   6 NSaved=   6.
 NSaved= 6 IEnMin= 6 EnMin= -271.703218214053     IErMin= 6 ErrMin= 3.24D-05
 ErrMax= 3.24D-05  0.00D+00 EMaxC= 1.00D-01 BMatC= 2.37D-07 BMatP= 3.00D-06
 IDIUse=1 WtCom= 1.00D+00 WtEn= 0.00D+00
 Coeff-Com: -0.303D-02 0.127D-01-0.570D-02 0.158D+00 0.292D+00 0.546D+00
 Coeff:     -0.303D-02 0.127D-01-0.570D-02 0.158D+00 0.292D+00 0.546D+00
 Gap=     0.152 Goal=   None    Shift=    0.000
 RMSDP=5.32D-06 MaxDP=1.08D-04 DE=-2.46D-06 OVMax= 1.99D-04

 Initial convergence to 1.0D-05 achieved.  Increase integral accuracy.
 Cycle   7  Pass 1  IDiag  1:
 E= -271.703214923694     Delta-E=        0.000003290359 Rises=F Damp=F
 DIIS: error= 8.36D-06 at cycle   1 NSaved=   1.
 NSaved= 1 IEnMin= 1 EnMin= -271.703214923694     IErMin= 1 ErrMin= 8.36D-06
 ErrMax= 8.36D-06  0.00D+00 EMaxC= 1.00D-01 BMatC= 2.31D-08 BMatP= 2.31D-08
 IDIUse=1 WtCom= 1.00D+00 WtEn= 0.00D+00
 Coeff-Com:  0.100D+01
 Coeff:      0.100D+01
 Gap=     0.152 Goal=   None    Shift=    0.000
 RMSDP=5.32D-06 MaxDP=1.08D-04 DE= 3.29D-06 OVMax= 1.83D-04

 Cycle   8  Pass 1  IDiag  1:
 RMSU=  4.40D-06    CP:  1.00D+00
 E= -271.703214903237     Delta-E=        0.000000020457 Rises=F Damp=F
 DIIS: error= 1.97D-05 at cycle   2 NSaved=   2.
 NSaved= 2 IEnMin= 1 EnMin= -271.703214923694     IErMin= 1 ErrMin= 8.36D-06
 ErrMax= 1.97D-05  0.00D+00 EMaxC= 1.00D-01 BMatC= 4.87D-08 BMatP= 2.31D-08
 IDIUse=1 WtCom= 1.00D+00 WtEn= 0.00D+00
 Coeff-Com:  0.602D+00 0.398D+00
 Coeff:      0.602D+00 0.398D+00
 Gap=     0.152 Goal=   None    Shift=    0.000
[...]

 ----------------------------------------------------------------------

 Dipole orientation:
     6          1.61113589         -0.88985236         -0.77607632
     6          3.65144182          0.82388084          0.31026355
     1          2.12526141         -2.90288797         -0.81957273
     1          5.18649933          0.99317765         -1.07341546
     1          2.90775794          2.72376234          0.64724064
     1          4.44201562          0.07713348          2.07119648
     8          0.36160173         -0.08860703         -2.72722042
     6         -0.81028809         -1.47391412          2.02661132
     6         -2.13818470          0.80449442          1.83939359
     1          0.35917345         -1.82284395          3.67940917
     1         -1.69691507         -3.15504014          1.24087019
     6         -3.59855437          1.33002838         -0.32642722
     1         -1.49795177          2.39057229          2.98767636
     1         -4.45514840          3.19265462         -0.49803149
     1         -1.65231164          1.06575071         -1.86945787
     1         -4.75838889         -0.19560794         -1.09001809

 Electric dipole moment (dipole orientation):
 (Debye = 10**-18 statcoulomb cm , SI units = C m)
                  (au)            (Debye)         (10**-30 SI)
   Tot        0.860923D+00      0.218825D+01      0.729921D+01
   x          0.000000D+00      0.000000D+00      0.000000D+00
   y          0.000000D+00      0.000000D+00      0.000000D+00
   z          0.860923D+00      0.218825D+01      0.729921D+01

 Dipole polarizability, Alpha (dipole orientation).
 (esu units = cm**3 , SI units = C**2 m**2 J**-1)
 Alpha(0;0):
               (au)            (10**-24 esu)      (10**-40 SI)
   iso        0.616039D+02      0.912875D+01      0.101571D+02
   aniso      0.218919D+02      0.324405D+01      0.360949D+01
   xx         0.720961D+02      0.106835D+02      0.118870D+02
   yx        -0.865773D+01     -0.128294D+01     -0.142747D+01
   yy         0.552541D+02      0.818781D+01      0.911017D+01
   zx        -0.504979D+00     -0.748302D-01     -0.832599D-01
   zy        -0.870385D+00     -0.128978D+00     -0.143507D+00
   zz         0.574614D+02      0.851490D+01      0.947411D+01

 ----------------------------------------------------------------------
 1\1\GINC-NODE025\Freq\RB3LYP\GenECP\C5H10O1\CWAGEN\05-Aug-2019\0\\#P G
 eom=AllCheck Guess=TCheck SCRF=Check GenChk RB3LYP/GenECP Freq\\title\
 \0,1\C,0.9754407254,0.2657379067,-0.3085156436\C,1.7775843355,-0.49137
 07424,0.7412225194\H,1.4230229362,0.252799736,-1.3129130503\H,2.672379
 7461,0.0927101102,0.9906416785\H,1.196487282,-0.6104831875,1.660780955
 8\H,2.0975298181,-1.476534076,0.38541807\O,0.4311371096,1.3907355488,0
 .0395753428\C,-0.4617193898,-0.9774124459,-0.8796578888\C,-1.331410877
 4,-0.7729646924,0.1969565588\H,0.0270529005,-1.941947545,-0.9928450699
 \H,-0.6995660887,-0.4800609891,-1.818008491\C,-1.9409058925,0.48418966
 87,0.3871720157\H,-1.2433594477,-1.436980148,1.0570716275\H,-2.5325087
 034,0.6406010681,1.2876075228\H,-0.782133914,1.1169422551,0.4493875453
 \H,-2.33504954,0.9935455328,-0.494285693\\Version=AS64L-G16RevA.03\Sta
 te=1-A\HF=-271.7040088\RMSD=1.188e-09\RMSF=2.381e-05\ZeroPoint=0.13636
 79\Thermal=0.1430684\Dipole=-0.1415389,-0.84859,-0.0324124\DipoleDeriv
 =0.9134821,-0.028637,0.101427,0.3215821,0.7440348,0.01346,0.4833995,-0
 .0302599,0.5102064,-0.1191797,0.0480879,-0.0931136,-0.0784401,0.071318
 5,0.059424,-0.0694758,0.1483274,-0.0780133,-0.1614011,0.0176471,0.0844
 447,0.0060986,0.0420968,0.0327939,0.0113803,0.0218593,-0.1721222,-0.11
 11652,-0.0697238,-0.0628176,-0.0543351,0.0065512,-0.0114826,-0.1158762
 ,-0.0080732,0.0463744,0.0089662,-0.0139826,0.0993484,0.0202326,0.03953
 31,0.0209965,0.0458364,0.023365,-0.0628451,0.0311436,0.0283127,-0.0026
 873,0.0965339,-0.1064826,-0.0346241,0.0184939,-0.0840573,0.0102748,-0.
 6323243,-0.0740292,-0.0515059,-0.1652294,-0.930572,-0.0749144,-0.21309
 29,-0.0579381,-0.4235681,-0.6758523,-0.0898808,0.0691816,-0.3377859,0.
 0260275,-0.0306491,0.1155008,-0.0000714,-0.0224072,0.2316,-0.3217548,-
 0.1261711,-0.5313639,0.1062126,0.0852967,-0.4697207,-0.0795317,0.18049
 06,0.0880184,0.0638059,0.011685,0.1003605,-0.0574228,-0.0274815,0.0272
 414,-0.0033292,0.0309168,0.0847412,0.026094,-0.0505455,0.0662801,0.009
 9696,0.0452778,-0.0042554,0.0186352,-0.0519914,0.021335,-0.1512284,-0.
 1454072,0.3053318,-0.3916681,-0.1827456,0.0393883,-0.0752763,0.0458373
 ,0.1013938,0.0691824,0.0012344,0.0461217,0.0068573,0.0726367,0.0223627
 ,0.0960727,-0.0385435,-0.020178,0.0973337,0.0931104,0.0162825,0.102817
 ,0.0241858,0.0700598,-0.0041642,-0.0376291,0.2625465,0.3013125,0.05160
 39,0.179323,0.2376827,-0.0330149,0.0696133,-0.0327595,0.109525,-0.0231
 263,0.0974602,0.020213,0.0090076,0.0930443,0.0408409,-0.0308554,0.0672
 01,-0.0465054\Polar=74.1700463,-2.2397195,57.6642571,-5.1819055,1.9901
 886,52.9773603\Quadrupole=0.9443538,-2.3141048,1.369751,-1.6876069,-0.
 8559196,-0.3345004\PG=C01 [X(C5H10O1)]\NImag=1\\0.37778046,-0.24641547
 ,0.41902595,-0.12055383,-0.01964838,0.57571075,-0.09832635,0.03689315,
 -0.03450602,0.53227598,0.02730119,-0.08693898,0.04119815,0.01321623,0.
 56226768,-0.03574565,0.03832181,-0.15799953,-0.05038299,0.03705000,0.5
 3609604,-0.07693041,0.01203654,0.09528599,0.00936709,0.00275272,-0.016
 79016,0.08997088,0.00325727,-0.03683790,0.02277753,-0.00647779,0.00243
 342,0.01263903,-0.01182523,0.05634053,0.08482713,0.02030942,-0.2608243
 9,0.01099743,0.00221641,-0.01763178,-0.09688978,-0.00237971,0.28189992
 ,-0.01571311,-0.00850028,-0.00439573,-0.22110563,-0.11537787,-0.045356
 69,0.00043797,0.00032243,-0.00017277,0.23860641,0.01410787,0.00655961,
 0.00239755,-0.11375949,-0.12439277,-0.03112876,-0.00074385,0.00024252,
 -0.00057819,0.12622579,0.13212139,-0.01991554,-0.01014774,-0.00530441,
 -0.04767698,-0.03293959,-0.06030721,0.00094263,-0.00007836,0.00022592,
 0.05318921,0.03330335,0.06298538,0.01010877,0.00144869,-0.02003570,-0.
 12625253,-0.01467177,0.12417123,-0.00154188,0.00258971,-0.00298104,-0.
 01406292,-0.00192870,0.02309432,0.13637167,-0.01051315,-0.00164283,0.0
 1353497,-0.01439276,-0.05285535,0.02359843,0.00197702,-0.00085893,0.00
 209508,-0.00941785,-0.00219565,0.01595627,0.01650181,0.05057181,0.0147
 2785,0.00080075,-0.02338181,0.12139319,0.02436667,-0.23441798,-0.00323
 078,0.00277288,-0.00237754,-0.00416889,-0.00060214,0.00734475,-0.13181
 114,-0.02742058,0.25513419,-0.00589104,0.01421878,0.01086522,-0.070380
 26,0.06715813,0.02510206,0.00049372,-0.00053262,-0.00030331,0.00990192
 ,-0.02472121,-0.00894638,-0.00519316,0.01615159,0.00409337,0.07303220,
 0.00049962,-0.01222547,-0.01067111,0.06894130,-0.26311641,-0.07714455,
 -0.00038483,0.00022623,0.00085818,0.00547601,-0.01484069,-0.00519486,-
 0.00170460,0.00568007,0.00134104,-0.07581837,0.28510763,-0.00542746,0.
 02012449,0.01206902,0.02663753,-0.07960880,-0.08128988,0.00106749,-0.0
 0097571,0.00012629,0.00245193,-0.00529990,-0.00299596,0.00571594,-0.02
 550478,-0.00730443,-0.02605525,0.08695469,0.08221477,-0.16658888,0.082
 74823,0.02917628,-0.00472830,0.03692602,0.00273872,-0.00362402,0.03076
 207,0.01713143,0.00346785,-0.00171223,0.00383213,0.00072984,-0.0006741
 2,-0.00082276,-0.00210913,0.00411998,-0.00434772,0.17802424,0.15532001
 ,-0.30846587,-0.05761160,0.01736862,-0.03685848,-0.00255883,0.00571886
 ,-0.01453156,-0.01936596,0.00055723,0.00142864,-0.00139739,-0.00192131
 ,0.00117970,-0.00147589,0.00427590,-0.00194075,0.00407197,-0.11649924,
 0.44437558,0.05681594,-0.05603151,-0.10597410,-0.00996789,0.01651342,0
 .01881423,0.01097839,-0.03926346,-0.00484726,0.00040134,0.00065431,-0.
 00017000,0.00195033,-0.00168886,0.00378354,-0.00455194,0.00392522,-0.0
 0252327,-0.04668328,0.08797254,0.10170157,0.02426502,0.10079118,0.0375
 3866,-0.01795053,-0.01183353,-0.00401894,-0.02018021,-0.01504587,-0.00
 673130,-0.00119613,0.00200353,-0.00338626,0.00085870,0.00026236,0.0001
 4796,-0.00018356,-0.00019370,0.00008111,0.04317888,-0.04552736,-0.0198
 2289,0.29930207,0.04250780,0.03471757,0.02608173,-0.00258609,0.0005662
 1,0.00056172,-0.01048657,-0.00637513,-0.00197582,0.00123093,0.00037593
 ,0.00011439,0.00023747,-0.00013963,-0.00018139,0.00040927,-0.00013406,
 0.00035218,0.01026157,-0.04046369,-0.01971742,-0.26816966,0.49831134,-
 0.00222142,-0.00405908,-0.02496893,-0.01007516,-0.00616961,-0.00397837
 ,0.00812757,0.00605692,0.00142558,-0.00120753,0.00075898,-0.00094640,0
 .00050092,-0.00046844,0.00073356,0.00037425,-0.00071346,0.00026566,-0.
 00834434,0.00599058,0.00030199,-0.12951774,-0.05440644,0.63997373,-0.0
 3497375,-0.06150635,-0.01315317,0.00215292,0.00431248,-0.00039182,0.00
 282402,0.00408107,0.00091210,0.00128124,-0.00062250,0.00169235,-0.0011
 2150,-0.00024326,0.00014890,-0.00043248,0.00057819,-0.00042628,-0.0376
 2990,0.01765439,0.01967976,-0.14077270,0.06609988,0.14178882,0.3696344
 1,0.01097813,0.03276163,0.01556896,-0.00240819,-0.00190520,-0.00001021
 ,-0.00491342,-0.00353563,-0.00270884,-0.00054076,0.00024017,-0.0006070
 4,-0.00028061,0.00054714,-0.00011854,-0.00022267,0.00017853,-0.0001715
 1,0.03007920,-0.02664645,-0.01647364,0.02350239,-0.10792397,-0.0141288
 7,-0.17310310,0.57407840,0.02151138,0.04808937,0.01610627,-0.00605574,
 -0.00456992,0.00070292,-0.00574906,-0.00379159,-0.00112474,-0.00130484
 ,0.00085099,-0.00196069,-0.00044382,-0.00006396,-0.00059859,0.00011458
 ,0.00004444,0.00005658,0.02661239,-0.02638658,-0.01057417,0.12158301,-
 0.03958375,-0.27600579,-0.15562360,-0.09615101,0.61297161,0.00450756,-
 0.01186112,-0.00231982,0.00065529,0.00024995,-0.00032012,0.00067796,0.
 00054116,0.00051665,0.00021822,0.00009370,0.00040619,-0.00009761,0.000
 01728,0.00005975,-0.00064590,-0.00007613,-0.00044837,-0.00362040,-0.00
 107592,-0.00124599,-0.09232376,0.12010131,0.01509245,-0.01162304,0.024
 02632,0.00188980,0.10347178,0.00481766,-0.00785925,-0.00093650,0.00120
 276,0.00010830,-0.00015357,0.00008529,0.00023387,0.00053669,-0.0000599
 0,0.00036479,0.00034934,-0.00010905,0.00000428,0.00006881,-0.00056402,
 0.00083339,-0.00003010,-0.00308752,-0.00056503,-0.00098573,0.12741349,
 -0.27495355,-0.02212263,-0.00394100,0.00207382,0.00271624,-0.13143366,
 0.28837353,0.00172510,-0.00447729,-0.00112938,0.00023604,-0.00023618,-
 0.00011518,-0.00007777,0.00037679,-0.00008737,0.00008420,0.00023917,0.
 00011740,0.00001234,-0.00007901,-0.00005796,-0.00061804,0.00013084,-0.
 00003914,-0.00191627,-0.00036956,0.00011293,0.01783931,-0.01768140,-0.
 05872345,0.00677856,-0.02354177,0.00112692,-0.01873054,0.02388955,0.05
 514065,-0.00997799,-0.00339493,-0.01339241,-0.00191889,-0.00158372,-0.
 00005925,-0.00027719,0.00051200,-0.00060132,-0.00054210,0.00003352,-0.
 00061272,0.00019856,-0.00009437,0.00020530,0.00024343,-0.00029286,0.00
 002277,-0.00205813,0.00376470,0.00283404,-0.04752218,0.04500060,-0.055
 60863,0.00282948,-0.00945524,0.02482499,-0.00235421,0.00388257,-0.0110
 7479,0.05884215,-0.00853907,-0.00387064,-0.00974885,-0.00071932,-0.001
 30583,-0.00039159,0.00031557,0.00094706,-0.00100313,-0.00039520,0.0002
 6933,-0.00025798,0.00006597,-0.00006617,0.00006145,-0.00016613,0.00018
 266,0.00008869,-0.00250208,0.00342351,0.00176596,0.04592726,-0.1082948
 5,0.10923458,-0.00590562,0.00563827,0.00182486,0.00434029,-0.00899546,
 0.02332489,-0.03724673,0.11189949,-0.00234769,-0.00069522,-0.00542309,
 -0.00078075,-0.00064603,0.00030512,0.00058773,0.00049031,0.00145692,-0
 .00013122,0.00007221,-0.00015090,0.00016273,-0.00000522,0.00021335,0.0
 0003897,0.00003939,0.00000015,-0.00134167,0.00097513,0.00142135,-0.045
 29697,0.11380789,-0.26074992,-0.00797259,0.01362735,-0.01850823,0.0013
 0051,-0.00274785,0.00583517,0.05075720,-0.12303214,0.27642682,-0.00476
 638,-0.03150004,-0.01051505,0.00002187,0.00123409,-0.00103749,0.003873
 73,0.00327348,0.00211927,0.00028986,0.00007188,0.00041670,-0.00024394,
 -0.00015030,0.00016334,0.00005829,0.00019229,-0.00017629,-0.06988582,0
 .00840380,0.02272587,0.00745373,0.02729087,0.00504066,-0.13600505,0.14
 947140,0.03356918,-0.00034241,0.00143571,0.00356248,-0.00258006,-0.002
 49525,-0.00203376,0.39266913,-0.01455703,-0.06542791,-0.02427865,0.003
 65109,0.00576968,-0.00088796,0.00456201,0.00638291,0.00391014,0.001048
 14,-0.00070560,0.00204889,-0.00063777,-0.00036144,0.00046799,-0.000449
 18,0.00059497,-0.00048086,-0.07946368,0.02323846,0.03098250,0.05518870
 ,0.01230258,-0.02158686,0.10399779,-0.26451787,0.00791781,-0.00318076,
 0.00009123,-0.00065787,-0.00537613,-0.00429135,-0.00104753,-0.24545050
 ,0.45794852,0.00025807,-0.01114678,-0.00471930,0.00046387,0.00121274,-
 0.00047597,0.00137199,0.00202705,0.00112082,0.00027696,-0.00048838,0.0
 0060960,-0.00002536,-0.00030551,0.00047903,-0.00016530,0.00001097,-0.0
 0003391,-0.00565174,0.00442611,0.00559840,0.02236493,-0.02549848,-0.00
 065678,0.02505346,-0.01840509,-0.10480789,0.00524807,-0.00022069,-0.00
 271106,-0.00112287,-0.00133466,0.00094454,-0.09621105,-0.04905774,0.61
 378790,0.00101793,0.00008909,-0.00088140,-0.00013143,-0.00013288,-0.00
 005941,0.00069697,0.00020025,0.00030806,0.00007105,0.00009460,-0.00012
 521,-0.00057467,-0.00023026,-0.00024873,-0.00004124,-0.00000532,0.0000
 9072,-0.00007959,-0.00029228,-0.00036436,0.00604913,-0.01010558,0.0194
 2056,-0.05074094,0.02272577,-0.01761572,-0.00192482,-0.00136868,-0.001
 50791,0.00077138,0.00290605,0.00364913,0.00360288,0.00902421,-0.010310
 97,0.04087825,0.00111286,0.00105503,0.00026493,-0.00009818,-0.00003082
 ,0.00072426,0.00023674,-0.00001892,0.00022032,0.00015141,0.00003755,-0
 .00029134,0.00003956,0.00008508,-0.00044434,0.00005544,-0.00008606,-0.
 00004270,0.00031143,-0.00043818,-0.00060265,-0.00032982,0.00630873,-0.
 00357775,0.01821212,-0.15572276,0.12931818,-0.00260220,-0.00038154,-0.
 00072047,0.00330711,0.00293422,-0.00047678,0.00728459,-0.01166047,0.02
 476195,-0.02721185,0.16031114,-0.00001461,0.00025488,-0.00080875,-0.00
 000540,-0.00004361,-0.00026169,0.00014759,-0.00009509,0.00038193,-0.00
 000739,-0.00011032,0.00022945,-0.00022367,0.00000585,0.00055962,0.0000
 7094,-0.00003252,-0.00000122,0.00043121,-0.00028760,-0.00004622,-0.004
 50836,0.01600964,-0.01772601,-0.01051276,0.13534109,-0.22728416,-0.001
 58854,-0.00115447,0.00067159,0.00546052,0.00082409,-0.00159961,0.00313
 268,-0.00317029,0.00686951,0.00846009,-0.14696413,0.23761940,0.0012103
 3,0.00281815,0.00109293,-0.00023289,-0.00057078,0.00021217,-0.00022580
 ,-0.00033792,-0.00021200,-0.00012525,0.00015017,-0.00019251,0.00009355
 ,0.00014177,-0.00006014,0.00006114,0.00005437,-0.00001137,-0.00031386,
 -0.00166035,-0.00111701,0.00020552,0.00306623,0.00183054,-0.00419091,-
 0.00478539,0.00507729,0.00025766,0.00037037,0.00112780,-0.00017867,-0.
 00022329,0.00055078,-0.12675535,0.03374148,0.13245244,-0.00237175,-0.0
 0156044,-0.00114598,0.13119775,-0.00038045,0.00046258,0.00053684,0.000
 07422,-0.00020471,0.00002424,-0.00013038,-0.00029226,-0.00009699,-0.00
 001328,0.00008460,-0.00004605,0.00005431,0.00010030,-0.00003332,-0.000
 00918,0.00005867,-0.00000349,-0.00051192,-0.00027025,-0.00043971,0.002
 48313,-0.00505105,0.00174067,0.01938696,-0.00179342,-0.02949041,0.0012
 7141,0.00004467,-0.00103150,-0.00015460,-0.00021226,0.00019027,0.02696
 163,-0.05053796,-0.02145350,-0.00284566,0.00024826,-0.00061751,-0.0325
 6806,0.05289388,-0.00018647,0.00161429,0.00063194,-0.00003420,-0.00022
 777,0.00006742,-0.00017844,-0.00015757,-0.00006333,-0.00001856,0.00006
 538,-0.00005650,0.00002588,0.00003276,-0.00001305,-0.00000031,0.000004
 74,0.00001036,0.00165658,-0.00022891,-0.00023530,-0.00002227,-0.001139
 03,0.00200430,0.00118033,0.00000441,-0.00257611,0.00047020,0.00033338,
 0.00028175,-0.00025776,0.00012284,0.00063131,0.12881235,-0.02777458,-0
 .24716209,-0.00155864,-0.00105824,0.00056532,-0.14132453,0.03150781,0.
 26011131,-0.00694795,0.10384803,0.04232328,-0.00272870,-0.00802695,0.0
 0177401,-0.00501325,-0.01065983,-0.00840767,-0.00134089,0.00063110,-0.
 00236994,0.00062268,0.00067891,-0.00058996,0.00102878,-0.00130242,0.00
 076617,0.05785777,-0.04201893,-0.02885483,-0.05370170,-0.02123646,0.01
 425994,0.03665238,-0.05939965,-0.03582638,0.00250833,0.00143649,0.0019
 6053,0.00412785,0.00334066,0.00229147,0.00753879,0.06922457,0.00366292
 ,-0.00083528,-0.00114844,-0.00142006,-0.00617641,-0.00367417,-0.002423
 53,-0.01406197,0.01982809,0.02395277,-0.00166537,-0.00043496,-0.002971
 61,-0.00076115,0.00098280,-0.00392901,-0.00175153,-0.00062250,0.000330
 29,-0.00055051,0.00026750,-0.00001685,0.00049657,0.00020886,-0.0004538
 6,0.00046771,0.00447387,-0.04139851,-0.00459315,-0.00958765,-0.0073403
 6,0.00210733,-0.00331356,-0.03429430,-0.01534876,0.00014477,0.00080022
 ,0.00121484,0.00015341,0.00039183,0.00022908,-0.00213234,-0.01660961,-
 0.00369942,0.00155332,0.00066245,0.00043333,0.00450168,0.00212632,0.00
 095915,-0.01963095,0.07644341,0.00662922,-0.02455232,-0.01482820,-0.00
 033350,0.00199587,0.00057785,0.00445849,-0.00022963,0.00047632,0.00036
 946,-0.00016215,0.00037709,-0.00013403,0.00032652,-0.00010310,-0.00002
 065,0.00048871,-0.00058806,-0.01421490,0.00735623,-0.00788706,0.013704
 34,0.00415237,-0.00127659,-0.01131228,0.01029262,0.00589325,-0.0004690
 0,0.00023279,-0.00047726,-0.00073966,-0.00095437,-0.00086294,-0.015237
 41,-0.02269569,-0.03264370,-0.00003230,0.00029537,-0.00005284,0.012475
 00,0.00881670,0.00194756,0.01678023,0.02059231,0.05319607,0.00122579,0
 .00828634,0.00347079,-0.00071764,-0.00095331,0.00016433,-0.00054958,-0
 .00066019,-0.00051289,-0.00018848,0.00007585,-0.00034799,0.00010444,-0
 .00001468,-0.00000726,0.00005729,-0.00008353,0.00005909,0.00737943,-0.
 00406812,-0.00277749,-0.00748228,-0.00362157,0.00053912,0.00211580,-0.
 00567418,-0.01256346,0.00063535,-0.00008051,0.00059896,0.00039657,0.00
 129688,0.00056613,-0.07492928,0.06867706,-0.07766543,0.00361215,0.0022
 3967,0.00172375,0.00754494,-0.00994395,0.01385938,-0.01953042,0.003607
 67,-0.01192304,0.08032591,0.00067466,0.00473372,0.00219980,-0.00047060
 ,-0.00056513,0.00011714,-0.00018324,-0.00042723,-0.00028609,-0.0000842
 8,0.00007989,-0.00026139,0.00004878,-0.00003154,-0.00009997,0.00000542
 ,-0.00006485,0.00005811,0.00476842,-0.00206713,-0.00201781,-0.00688444
 ,-0.00190609,0.00134408,0.01431252,-0.01917837,0.02462409,-0.00055642,
 -0.00017328,-0.00038103,0.00094466,0.00135018,-0.00078088,0.05610868,-
 0.09221613,0.09917142,0.00559921,-0.00330371,-0.00039333,-0.00313798,0
 .00234264,-0.00405866,-0.01206196,0.00230680,-0.00595532,-0.05908343,0
 .10912023,-0.00008202,0.00124331,0.00084391,0.00009056,-0.00011177,-0.
 00008598,-0.00005187,-0.00016941,-0.00015727,-0.00000948,0.00002789,0.
 00000248,0.00002107,-0.00001352,0.00000640,0.00000178,-0.00004171,0.00
 003304,0.00174395,-0.00111024,0.00052338,0.00004540,-0.00089619,0.0003
 2742,0.00215823,-0.00251791,0.00658282,0.00013873,0.00022475,0.0000543
 9,-0.00063541,-0.00052467,0.00005997,-0.07433149,0.10631069,-0.2361991
 1,0.00077609,-0.00140660,0.00088368,-0.01075540,0.01039596,-0.01614489
 ,-0.00392615,0.00186957,-0.00374838,0.08481601,-0.11328015,0.24701814\
 \-0.00000335,0.00004518,0.00001016,-0.00000363,0.00000319,-0.00000130,
 -0.00001301,-0.00000376,0.00000011,0.00000104,0.00000368,-0.00000473,0
 .00000160,0.00000503,-0.00000015,0.00000099,0.00000266,0.00000059,0.00
 001726,-0.00001897,0.00000170,-0.00002994,-0.00001620,0.00001667,-0.00
 000338,0.00000251,-0.00001576,0.00000230,-0.00000010,0.00000369,0.0000
 0310,0.00000291,0.00000474,0.00009418,0.00003986,0.00000729,0.00000617
 ,0.00000455,0.00000494,0.00000449,0.00000009,0.00000111,-0.00007940,-0
 .00006767,-0.00002905,0.00000158,-0.00000298,0.00000001\\\@


 A SUCCESSFUL PURSUIT OF SCIENCE MAKES A MAN THE
 BENEFACTOR OF ALL MANKIND OF EVERY AGE.
   --  JOSEPH PRIESTLEY, "EXPERIMENTS AND
 OBSERVATIONS ON DIFFERENT KINDS OF AIR", 1774
 Job cpu time:       0 days  0 hours 25 minutes 45.8 seconds.
 Elapsed time:       0 days  0 hours  2 minutes  0.6 seconds.
 File lengths (MBytes):  RWF=     26 Int=      0 D2E=      0 Chk=      2 Scr=      1
 Normal termination of Gaussian 16 at Mon Aug  5 15:03:51 2019.
