 Entering Gaussian System, Link 0=g16
 Input=presto-IHHrJ0zo-000000001.gjf
 Output=presto-IHHrJ0zo-000000001.out
 Initial command:
 /n/sw/g16_nehalem/g16/l1.exe "/scratch/Gau-29925.inp" -scrdir="/scratch/"
 Entering Link 1 = /n/sw/g16_nehalem/g16/l1.exe PID=     29928.
  
 Copyright (c) 1988,1990,1992,1993,1995,1998,2003,2009,2016,
            Gaussian, Inc.  All Rights Reserved.
  
 This is part of the Gaussian(R) 16 program.  It is based on
 the Gaussian(R) 09 system (copyright 2009, Gaussian, Inc.),
 the Gaussian(R) 03 system (copyright 2003, Gaussian, Inc.),
 the Gaussian(R) 98 system (copyright 1998, Gaussian, Inc.),
 the Gaussian(R) 94 system (copyright 1995, Gaussian, Inc.),
 the Gaussian 92(TM) system (copyright 1992, Gaussian, Inc.),
 the Gaussian 90(TM) system (copyright 1990, Gaussian, Inc.),
 the Gaussian 88(TM) system (copyright 1988, Gaussian, Inc.),
 the Gaussian 86(TM) system (copyright 1986, Carnegie Mellon
 University), and the Gaussian 82(TM) system (copyright 1983,
 Carnegie Mellon University). Gaussian is a federally registered
 trademark of Gaussian, Inc.
  
 This software contains proprietary and confidential information,
 including trade secrets, belonging to Gaussian, Inc.
  
 This software is provided under written license and may be
 used, copied, transmitted, or stored only in accord with that
 written license.
  
 The following legend is applicable only to US Government
 contracts under FAR:
  
                    RESTRICTED RIGHTS LEGEND
  
 Use, reproduction and disclosure by the US Government is
 subject to restrictions as set forth in subparagraphs (a)
 and (c) of the Commercial Computer Software - Restricted
 Rights clause in FAR 52.227-19.
  
 Gaussian, Inc.
 340 Quinnipiac St., Bldg. 40, Wallingford CT 06492
  
  
 ---------------------------------------------------------------
 Warning -- This program may not be used in any manner that
 competes with the business of Gaussian, Inc. or will provide
 assistance to any competitor of Gaussian, Inc.  The licensee
 of this program is prohibited from giving any competitor of
 Gaussian, Inc. access to this program.  By using this program,
 the user acknowledges that Gaussian, Inc. is engaged in the
 business of creating and licensing software in the field of
 computational chemistry and represents and warrants to the
 licensee that it is not a competitor of Gaussian, Inc. and that
 it will not use this program in any manner prohibited above.
 ---------------------------------------------------------------
  

 Cite this work as:
 Gaussian 16, Revision A.03,
 M. J. Frisch, G. W. Trucks, H. B. Schlegel, G. E. Scuseria, 
 M. A. Robb, J. R. Cheeseman, G. Scalmani, V. Barone, 
 G. A. Petersson, H. Nakatsuji, X. Li, M. Caricato, A. V. Marenich, 
 J. Bloino, B. G. Janesko, R. Gomperts, B. Mennucci, H. P. Hratchian, 
 J. V. Ortiz, A. F. Izmaylov, J. L. Sonnenberg, D. Williams-Young, 
 F. Ding, F. Lipparini, F. Egidi, J. Goings, B. Peng, A. Petrone, 
 T. Henderson, D. Ranasinghe, V. G. Zakrzewski, J. Gao, N. Rega, 
 G. Zheng, W. Liang, M. Hada, M. Ehara, K. Toyota, R. Fukuda, 
 J. Hasegawa, M. Ishida, T. Nakajima, Y. Honda, O. Kitao, H. Nakai, 
 T. Vreven, K. Throssell, J. A. Montgomery, Jr., J. E. Peralta, 
 F. Ogliaro, M. J. Bearpark, J. J. Heyd, E. N. Brothers, K. N. Kudin, 
 V. N. Staroverov, T. A. Keith, R. Kobayashi, J. Normand, 
 K. Raghavachari, A. P. Rendell, J. C. Burant, S. S. Iyengar, 
 J. Tomasi, M. Cossi, J. M. Millam, M. Klene, C. Adamo, R. Cammi, 
 J. W. Ochterski, R. L. Martin, K. Morokuma, O. Farkas, 
 J. B. Foresman, and D. J. Fox, Gaussian, Inc., Wallingford CT, 2016.
 
 ******************************************
 Gaussian 16:  ES64L-G16RevA.03 25-Dec-2016
                 3-Jan-2021 
 ******************************************
 %mem=32GB
 %nprocshared=16
 Will use up to   16 processors via shared memory.
 ------------------------------------------------------------------
 #p force b3lyp/6-31+g(d) empiricaldispersion=gd3bj pop=none nosymm
 ------------------------------------------------------------------
 1/10=7,30=1,38=1/1,3;
 2/12=2,15=1,17=6,18=5,40=1/2;
 3/5=1,6=6,7=11,11=2,25=1,30=1,71=1,74=-5,124=41/1,2,3;
 4//1;
 5/5=2,38=5/2;
 7/29=1,30=1/1,2,3,16;
 1/10=7,30=1/3;
 99//99;
 Leave Link    1 at Sun Jan  3 18:16:54 2021, MaxMem=  4294967296 cpu:               1.0 elap:               0.1
 (Enter /n/sw/g16_nehalem/g16/l101.exe)
 -----
 title
 -----
 Symbolic Z-matrix:
 Charge =  0 Multiplicity = 1
 17                    0.37477  -0.74624   0.78158 
 6                    -0.11966   3.85174  -0.98513 
 6                    -0.17268   3.24967   0.18388 
 1                     0.08384   2.20349   0.25027 
 1                     2.52897   3.87057   1.19346 
 1                    -0.36896   3.77355   1.15817 
 6                    -0.52603   5.31225  -1.26287 
 1                     0.19813   5.76687  -2.022 
 1                    -1.60109   5.37046  -1.54506 
 1                    -0.30496   5.80815  -0.3215 
 6                     0.224     3.09609  -2.2598 
 1                    -0.24617   2.08375  -2.21521 
 1                    -0.23993   3.6162   -3.07706 
 1                     1.31547   3.00675  -2.50122 
 
 ITRead=  0  0  0  0  0  0  0  0  0  0  0  0  0  0
 MicOpt= -1 -1 -1 -1 -1 -1 -1 -1 -1 -1 -1 -1 -1 -1
 NAtoms=     14 NQM=       14 NQMF=       0 NMMI=      0 NMMIF=      0
                NMic=       0 NMicF=      0.
                    Isotopes and Nuclear Properties:
 (Nuclear quadrupole moments (NQMom) in fm**2, nuclear magnetic moments (NMagM)
  in nuclear magnetons)

  Atom         1           2           3           4           5           6           7           8           9          10
 IAtWgt=          35          12          12           1           1           1          12           1           1           1
 AtmWgt=  34.9688527  12.0000000  12.0000000   1.0078250   1.0078250   1.0078250  12.0000000   1.0078250   1.0078250   1.0078250
 NucSpn=           3           0           0           1           1           1           0           1           1           1
 AtZEff=   0.0000000   0.0000000   0.0000000   0.0000000   0.0000000   0.0000000   0.0000000   0.0000000   0.0000000   0.0000000
 NQMom=   -8.1650000   0.0000000   0.0000000   0.0000000   0.0000000   0.0000000   0.0000000   0.0000000   0.0000000   0.0000000
 NMagM=    0.8218740   0.0000000   0.0000000   2.7928460   2.7928460   2.7928460   0.0000000   2.7928460   2.7928460   2.7928460
 AtZNuc=  17.0000000   6.0000000   6.0000000   1.0000000   1.0000000   1.0000000   6.0000000   1.0000000   1.0000000   1.0000000

  Atom        11          12          13          14
 IAtWgt=          12           1           1           1
 AtmWgt=  12.0000000   1.0078250   1.0078250   1.0078250
 NucSpn=           0           1           1           1
 AtZEff=   0.0000000   0.0000000   0.0000000   0.0000000
 NQMom=    0.0000000   0.0000000   0.0000000   0.0000000
 NMagM=    0.0000000   2.7928460   2.7928460   2.7928460
 AtZNuc=   6.0000000   1.0000000   1.0000000   1.0000000
 Leave Link  101 at Sun Jan  3 18:16:55 2021, MaxMem=  4294967296 cpu:               1.8 elap:               0.2
 (Enter /n/sw/g16_nehalem/g16/l103.exe)

 GradGradGradGradGradGradGradGradGradGradGradGradGradGradGradGradGradGrad
 Berny optimization.
 Initialization pass.
 Trust Radius=3.00D-01 FncErr=1.00D-07 GrdErr=1.00D-07 EigMax=2.50D+02 EigMin=1.00D-04
 Number of steps in this run=      2 maximum allowed number of steps=      2.
 GradGradGradGradGradGradGradGradGradGradGradGradGradGradGradGradGradGrad

 Leave Link  103 at Sun Jan  3 18:16:55 2021, MaxMem=  4294967296 cpu:               0.9 elap:               0.1
 (Enter /n/sw/g16_nehalem/g16/l202.exe)
                          Input orientation:                          
 ---------------------------------------------------------------------
 Center     Atomic      Atomic             Coordinates (Angstroms)
 Number     Number       Type             X           Y           Z
 ---------------------------------------------------------------------
      1         17           0        0.374771   -0.746244    0.781583
      2          6           0       -0.119660    3.851739   -0.985127
      3          6           0       -0.172681    3.249668    0.183879
      4          1           0        0.083835    2.203493    0.250265
      5          1           0        2.528967    3.870565    1.193462
      6          1           0       -0.368965    3.773546    1.158166
      7          6           0       -0.526033    5.312254   -1.262874
      8          1           0        0.198128    5.766865   -2.021997
      9          1           0       -1.601089    5.370460   -1.545064
     10          1           0       -0.304959    5.808154   -0.321504
     11          6           0        0.224001    3.096093   -2.259802
     12          1           0       -0.246169    2.083751   -2.215205
     13          1           0       -0.239928    3.616203   -3.077060
     14          1           0        1.315467    3.006748   -2.501217
 ---------------------------------------------------------------------
                    Distance matrix (angstroms):
                    1          2          3          4          5
     1  Cl   0.000000
     2  C    4.950472   0.000000
     3  C    4.077287   1.316008   0.000000
     4  H    3.011294   2.069860   1.079208   0.000000
     5  H    5.111275   3.429552   2.950199   3.106029   0.000000
     6  H    4.596026   2.159160   1.123481   1.869325   2.899770
     7  C    6.457295   1.541229   2.544055   3.510830   4.176731
     8  H    7.093086   2.200863   3.367443   4.227749   4.400902
     9  H    6.836035   2.194237   3.086641   4.011466   5.177506
    10  H    6.681240   2.074197   2.611276   3.670377   3.752400
    11  C    4.902684   1.521150   2.480428   2.667737   4.223471
    12  H    4.168355   2.157517   2.668402   2.490339   4.744797
    13  H    5.856443   2.108583   3.282163   3.629279   5.095963
    14  H    5.074114   2.252138   3.079503   3.119742   3.983643
                    6          7          8          9         10
     6  H    0.000000
     7  C    2.872930   0.000000
     8  H    3.795834   1.143394   0.000000
     9  H    3.372791   1.112998   1.903099   0.000000
    10  H    2.516575   1.086724   1.773832   1.835383   0.000000
    11  C    3.534552   2.543184   2.681463   3.002424   3.375215
    12  H    3.774933   3.377646   3.714843   3.617645   4.178605
    13  H    4.240111   2.499943   2.435241   2.697627   3.521643
    14  H    4.100777   3.199996   3.016015   3.873973   3.901898
                   11         12         13         14
    11  C    0.000000
    12  H    1.117088   0.000000
    13  H    1.074083   1.758193   0.000000
    14  H    1.121411   1.836419   1.766999   0.000000
 Symmetry turned off by external request.
 Stoichiometry    C4H9Cl
 Framework group  C1[X(C4H9Cl)]
 Deg. of freedom    36
 Full point group                 C1      NOp   1
 Rotational constants (GHZ):           7.3270760           0.8230809           0.7676455
 Leave Link  202 at Sun Jan  3 18:16:55 2021, MaxMem=  4294967296 cpu:               2.2 elap:               0.2
 (Enter /n/sw/g16_nehalem/g16/l301.exe)
 Standard basis: 6-31+G(d) (6D, 7F)
 Ernie: Thresh=  0.10000D-02 Tol=  0.10000D-05 Strict=F.
   117 basis functions,   220 primitive gaussians,   117 cartesian basis functions
    25 alpha electrons       25 beta electrons
       nuclear repulsion energy       183.1226760494 Hartrees.
 IExCor=  402 DFT=T Ex+Corr=B3LYP ExCW=0 ScaHFX=  0.200000
 ScaDFX=  0.800000  0.720000  1.000000  0.810000 ScalE2=  1.000000  1.000000
 IRadAn=      5 IRanWt=     -1 IRanGd=            0 ICorTp=0 IEmpDi=141
 NAtoms=   14 NActive=   14 NUniq=   14 SFac= 1.00D+00 NAtFMM=   60 NAOKFM=F Big=F
 Integral buffers will be    131072 words long.
 Raffenetti 2 integral format.
 Two-electron integral symmetry is turned off.
 R6Disp:  Grimme-D3(BJ) Dispersion energy=       -0.0154133799 Hartrees.
 Nuclear repulsion after empirical dispersion term =      183.1072626696 Hartrees.
 Leave Link  301 at Sun Jan  3 18:16:55 2021, MaxMem=  4294967296 cpu:               1.0 elap:               0.1
 (Enter /n/sw/g16_nehalem/g16/l302.exe)
 NPDir=0 NMtPBC=     1 NCelOv=     1 NCel=       1 NClECP=     1 NCelD=      1
         NCelK=      1 NCelE2=     1 NClLst=     1 CellRange=     0.0.
 One-electron integrals computed using PRISM.
 NBasis=   117 RedAO= T EigKep=  3.42D-05  NBF=   117
 NBsUse=   117 1.00D-06 EigRej= -1.00D+00 NBFU=   117
 Precomputing XC quadrature grid using
 IXCGrd= 4 IRadAn=           5 IRanWt=          -1 IRanGd=           0 AccXCQ= 0.00D+00.
 Generated NRdTot=       0 NPtTot=           0 NUsed=           0 NTot=          32
 NSgBfM=   117   117   117   117   117 MxSgAt=    14 MxSgA2=    14.
 Leave Link  302 at Sun Jan  3 18:16:57 2021, MaxMem=  4294967296 cpu:              18.9 elap:               1.8
 (Enter /n/sw/g16_nehalem/g16/l303.exe)
 DipDrv:  MaxL=1.
 Leave Link  303 at Sun Jan  3 18:16:57 2021, MaxMem=  4294967296 cpu:               3.1 elap:               0.4
 (Enter /n/sw/g16_nehalem/g16/l401.exe)
 ExpMin= 4.38D-02 ExpMax= 2.52D+04 ExpMxC= 3.78D+03 IAcc=3 IRadAn=         5 AccDes= 0.00D+00
 Harris functional with IExCor=  402 and IRadAn=       5 diagonalized for initial guess.
 HarFok:  IExCor=  402 AccDes= 0.00D+00 IRadAn=         5 IDoV= 1 UseB2=F ITyADJ=14
 ICtDFT=  3500011 ScaDFX=  1.000000  1.000000  1.000000  1.000000
 FoFCou: FMM=F IPFlag=           0 FMFlag=      100000 FMFlg1=           0
         NFxFlg=           0 DoJE=T BraDBF=F KetDBF=T FulRan=T
         wScrn=  0.000000 ICntrl=       500 IOpCl=  0 I1Cent=   200000004 NGrid=           0
         NMat0=    1 NMatS0=      1 NMatT0=    0 NMatD0=    1 NMtDS0=    0 NMtDT0=    0
 Symmetry not used in FoFCou.
 Harris En= -617.857743894211    
 JPrj=0 DoOrth=F DoCkMO=F.
 Leave Link  401 at Sun Jan  3 18:16:59 2021, MaxMem=  4294967296 cpu:              20.2 elap:               2.2
 (Enter /n/sw/g16_nehalem/g16/l502.exe)
 Two-electron integral symmetry not used.
 Closed shell SCF:
 Using DIIS extrapolation, IDIIS=  1040.
 NGot=  4294967296 LenX=  4294936855 LenY=  4294922725
 Requested convergence on RMS density matrix=1.00D-08 within 128 cycles.
 Requested convergence on MAX density matrix=1.00D-06.
 Requested convergence on             energy=1.00D-06.
 No special actions if energy rises.
 Fock matrices will be formed incrementally for  20 cycles.

 Cycle   1  Pass 1  IDiag  1:
 FoFJK:  IHMeth= 1 ICntrl=       0 DoSepK=F KAlg= 0 I1Cent=           0 FoldK=F
 IRaf= 950000000 NMat=       1 IRICut=       1 DoRegI=T DoRafI=F ISym2E= 0 IDoP0=0 IntGTp=1.
 FoFCou: FMM=F IPFlag=           0 FMFlag=      100000 FMFlg1=           0
         NFxFlg=           0 DoJE=F BraDBF=F KetDBF=F FulRan=T
         wScrn=  0.000000 ICntrl=         0 IOpCl=  0 I1Cent=           0 NGrid=           0
         NMat0=    1 NMatS0=      1 NMatT0=    0 NMatD0=    1 NMtDS0=    0 NMtDT0=    0
 Symmetry not used in FoFCou.
 E= -617.434935334990    
 DIIS: error= 3.73D-02 at cycle   1 NSaved=   1.
 NSaved= 1 IEnMin= 1 EnMin= -617.434935334990     IErMin= 1 ErrMin= 3.73D-02
 ErrMax= 3.73D-02  0.00D+00 EMaxC= 1.00D-01 BMatC= 1.78D-01 BMatP= 1.78D-01
 IDIUse=3 WtCom= 6.27D-01 WtEn= 3.73D-01
 Coeff-Com:  0.100D+01
 Coeff-En:   0.100D+01
 Coeff:      0.100D+01
 Gap=    -0.414 Goal=   None    Shift=    0.000
 GapD=   -0.414 DampG=0.250 DampE=0.500 DampFc=0.2500 IDamp=-1.
 Damping current iteration by 2.50D-01
 RMSDP=9.27D-02 MaxDP=6.22D+00              OVMax= 9.65D-01

 Cycle   2  Pass 1  IDiag  1:
 RMSU=  2.31D-02    CP:  1.06D+00
 E= -617.643505235615     Delta-E=       -0.208569900625 Rises=F Damp=T
 DIIS: error= 2.16D-02 at cycle   2 NSaved=   2.
 NSaved= 2 IEnMin= 2 EnMin= -617.643505235615     IErMin= 2 ErrMin= 2.16D-02
 ErrMax= 2.16D-02  0.00D+00 EMaxC= 1.00D-01 BMatC= 4.46D-02 BMatP= 1.78D-01
 IDIUse=3 WtCom= 7.84D-01 WtEn= 2.16D-01
 Coeff-Com: -0.475D+00 0.147D+01
 Coeff-En:   0.000D+00 0.100D+01
 Coeff:     -0.372D+00 0.137D+01
 Gap=     0.008 Goal=   None    Shift=    0.000
 RMSDP=1.97D-02 MaxDP=1.20D+00 DE=-2.09D-01 OVMax= 9.54D-01

 Cycle   3  Pass 1  IDiag  1:
 RMSU=  1.08D-02    CP:  9.84D-01  2.93D-01
 E= -617.098984088786     Delta-E=        0.544521146828 Rises=F Damp=F
 DIIS: error= 5.16D-02 at cycle   3 NSaved=   3.
 NSaved= 3 IEnMin= 2 EnMin= -617.643505235615     IErMin= 2 ErrMin= 2.16D-02
 ErrMax= 5.16D-02  0.00D+00 EMaxC= 1.00D-01 BMatC= 2.75D-01 BMatP= 4.46D-02
 IDIUse=2 WtCom= 0.00D+00 WtEn= 1.00D+00
 Coeff-En:   0.000D+00 0.785D+00 0.215D+00
 Coeff:      0.000D+00 0.785D+00 0.215D+00
 Gap=     0.062 Goal=   None    Shift=    0.000
 RMSDP=1.24D-02 MaxDP=5.27D-01 DE= 5.45D-01 OVMax= 8.05D-01

 Cycle   4  Pass 1  IDiag  1:
 RMSU=  1.02D-02    CP:  9.38D-01  2.13D-01  3.85D-01
 E= -617.189435785910     Delta-E=       -0.090451697123 Rises=F Damp=F
 DIIS: error= 2.36D-02 at cycle   4 NSaved=   4.
 NSaved= 4 IEnMin= 2 EnMin= -617.643505235615     IErMin= 2 ErrMin= 2.16D-02
 ErrMax= 2.36D-02  0.00D+00 EMaxC= 1.00D-01 BMatC= 1.38D-01 BMatP= 4.46D-02
 IDIUse=2 WtCom= 0.00D+00 WtEn= 1.00D+00
 EnCoef did   100 forward-backward iterations
 Coeff-En:   0.460D+00 0.196D-01 0.201D+00 0.320D+00
 Coeff:      0.460D+00 0.196D-01 0.201D+00 0.320D+00
 Gap=     0.012 Goal=   None    Shift=    0.000
 RMSDP=1.06D-02 MaxDP=4.65D-01 DE=-9.05D-02 OVMax= 9.95D-01

 Cycle   5  Pass 1  IDiag  1:
 RMSU=  5.08D-03    CP:  9.77D-01  7.81D-02  2.32D-01  1.76D-01
 E= -617.615545811035     Delta-E=       -0.426110025125 Rises=F Damp=F
 DIIS: error= 1.40D-02 at cycle   5 NSaved=   5.
 NSaved= 5 IEnMin= 2 EnMin= -617.643505235615     IErMin= 5 ErrMin= 1.40D-02
 ErrMax= 1.40D-02  0.00D+00 EMaxC= 1.00D-01 BMatC= 3.11D-02 BMatP= 4.46D-02
 IDIUse=3 WtCom= 8.60D-01 WtEn= 1.40D-01
 EnCoef did     2 forward-backward iterations
 Coeff-Com: -0.252D+00 0.765D+00 0.534D-01 0.143D-01 0.419D+00
 Coeff-En:   0.000D+00 0.000D+00 0.494D-01 0.329D+00 0.622D+00
 Coeff:     -0.217D+00 0.658D+00 0.529D-01 0.584D-01 0.448D+00
 Gap=    -0.107 Goal=   None    Shift=    0.000
 RMSDP=1.29D-02 MaxDP=4.45D-01 DE=-4.26D-01 OVMax= 8.36D-01

 Cycle   6  Pass 1  IDiag  1:
 RMSU=  4.90D-03    CP:  9.66D-01  4.29D-01  3.80D-01  7.38D-01 -2.54D-01
 E= -617.200173501615     Delta-E=        0.415372309419 Rises=F Damp=F
 DIIS: error= 3.02D-02 at cycle   6 NSaved=   6.
 NSaved= 6 IEnMin= 2 EnMin= -617.643505235615     IErMin= 5 ErrMin= 1.40D-02
 ErrMax= 3.02D-02  0.00D+00 EMaxC= 1.00D-01 BMatC= 1.18D-01 BMatP= 3.11D-02
 IDIUse=2 WtCom= 0.00D+00 WtEn= 1.00D+00
 EnCoef did     1 forward-backward iterations
 Coeff-En:   0.000D+00 0.000D+00 0.235D-01 0.000D+00 0.635D+00 0.341D+00
 Coeff:      0.000D+00 0.000D+00 0.235D-01 0.000D+00 0.635D+00 0.341D+00
 Gap=     0.013 Goal=   None    Shift=    0.000
 RMSDP=1.24D-02 MaxDP=4.55D-01 DE= 4.15D-01 OVMax= 9.98D-01

 Cycle   7  Pass 1  IDiag  1:
 RMSU=  3.61D-03    CP:  9.88D-01  1.27D-01  2.27D-01  7.07D-02  7.04D-01
                    CP:  1.28D-01
 E= -617.690482433669     Delta-E=       -0.490308932053 Rises=F Damp=F
 DIIS: error= 1.11D-02 at cycle   7 NSaved=   7.
 NSaved= 7 IEnMin= 7 EnMin= -617.690482433669     IErMin= 7 ErrMin= 1.11D-02
 ErrMax= 1.11D-02  0.00D+00 EMaxC= 1.00D-01 BMatC= 3.46D-02 BMatP= 3.11D-02
 IDIUse=2 WtCom= 0.00D+00 WtEn= 1.00D+00
 EnCoef did    53 forward-backward iterations
 Coeff-En:   0.000D+00 0.000D+00 0.000D+00 0.300D+00 0.000D+00 0.155D-02
 Coeff-En:   0.699D+00
 Coeff:      0.000D+00 0.000D+00 0.000D+00 0.300D+00 0.000D+00 0.155D-02
 Coeff:      0.699D+00
 Gap=     0.004 Goal=   None    Shift=    0.000
 RMSDP=3.80D-03 MaxDP=1.47D-01 DE=-4.90D-01 OVMax= 1.32D-01

 Cycle   8  Pass 1  IDiag  1:
 RMSU=  1.71D-03    CP:  9.72D-01  4.47D-02  2.03D-01  2.10D-01  7.37D-01
                    CP: -1.17D-01  4.49D-01
 E= -617.681626912059     Delta-E=        0.008855521610 Rises=F Damp=F
 DIIS: error= 2.04D-02 at cycle   8 NSaved=   8.
 NSaved= 8 IEnMin= 7 EnMin= -617.690482433669     IErMin= 7 ErrMin= 1.11D-02
 ErrMax= 2.04D-02  0.00D+00 EMaxC= 1.00D-01 BMatC= 2.15D-02 BMatP= 3.11D-02
 IDIUse=3 WtCom= 8.60D-01 WtEn= 1.40D-01
 EnCoef did   100 forward-backward iterations
 Coeff-Com: -0.287D+00 0.606D+00 0.287D-01 0.261D+00-0.149D+00-0.190D+00
 Coeff-Com:  0.408D+00 0.322D+00
 Coeff-En:   0.000D+00 0.000D+00 0.000D+00 0.253D+00 0.000D+00 0.480D-01
 Coeff-En:   0.561D+00 0.138D+00
 Coeff:     -0.247D+00 0.521D+00 0.247D-01 0.260D+00-0.128D+00-0.156D+00
 Coeff:      0.430D+00 0.296D+00
 Gap=    -0.075 Goal=   None    Shift=    0.000
 RMSDP=1.01D-02 MaxDP=4.71D-01 DE= 8.86D-03 OVMax= 8.38D-01

 Cycle   9  Pass 1  IDiag  1:
 RMSU=  1.02D-03    CP:  9.46D-01  2.22D-01  3.84D-01  8.57D-01 -1.78D-01
                    CP:  4.60D-01 -9.15D-02 -4.73D-02
 E= -617.209887443837     Delta-E=        0.471739468222 Rises=F Damp=F
 DIIS: error= 2.80D-02 at cycle   9 NSaved=   9.
 NSaved= 9 IEnMin= 7 EnMin= -617.690482433669     IErMin= 7 ErrMin= 1.11D-02
 ErrMax= 2.80D-02  0.00D+00 EMaxC= 1.00D-01 BMatC= 1.16D-01 BMatP= 2.15D-02
 IDIUse=2 WtCom= 0.00D+00 WtEn= 1.00D+00
 EnCoef did   100 forward-backward iterations
 Coeff-En:   0.000D+00 0.000D+00 0.000D+00 0.158D+00 0.000D+00 0.113D-04
 Coeff-En:   0.535D+00 0.164D+00 0.143D+00
 Coeff:      0.000D+00 0.000D+00 0.000D+00 0.158D+00 0.000D+00 0.113D-04
 Coeff:      0.535D+00 0.164D+00 0.143D+00
 Gap=     0.012 Goal=   None    Shift=    0.000
 RMSDP=1.02D-02 MaxDP=4.72D-01 DE= 4.72D-01 OVMax= 1.00D+00

 Cycle  10  Pass 1  IDiag  1:
 RMSU=  3.19D-04    CP:  9.74D-01  6.38D-02  2.34D-01  1.90D-01  7.67D-01
                    CP: -8.92D-02  6.45D-01  7.86D-01  1.24D-02
 E= -617.704488987326     Delta-E=       -0.494601543490 Rises=F Damp=F
 DIIS: error= 1.63D-02 at cycle  10 NSaved=  10.
 NSaved=10 IEnMin=10 EnMin= -617.704488987326     IErMin= 7 ErrMin= 1.11D-02
 ErrMax= 1.63D-02  0.00D+00 EMaxC= 1.00D-01 BMatC= 1.86D-02 BMatP= 2.15D-02
 IDIUse=3 WtCom= 8.60D-01 WtEn= 1.40D-01
 EnCoef did    85 forward-backward iterations
 Coeff-Com: -0.548D+00 0.877D+00 0.402D-01-0.613D-01-0.849D-01-0.750D+00
 Coeff-Com:  0.828D+00 0.116D+01 0.846D+00-0.131D+01
 Coeff-En:   0.000D+00 0.000D+00 0.000D+00 0.000D+00 0.000D+00 0.524D-04
 Coeff-En:   0.976D-01 0.000D+00 0.295D+00 0.607D+00
 Coeff:     -0.472D+00 0.755D+00 0.345D-01-0.527D-01-0.730D-01-0.645D+00
 Coeff:      0.726D+00 0.998D+00 0.769D+00-0.104D+01
 Gap=    -0.063 Goal=   None    Shift=    0.000
 RMSDP=1.05D-02 MaxDP=5.14D-01 DE=-4.95D-01 OVMax= 8.06D-01

 Cycle  11  Pass 1  IDiag  1:
 RMSU=  1.56D-03    CP:  9.50D-01  2.45D-01  4.08D-01  7.74D-01 -1.93D-01
                    CP:  5.84D-01 -1.74D-01 -1.02D-01  2.20D+00 -3.42D-01
 E= -617.217638678068     Delta-E=        0.486850309258 Rises=F Damp=F
 DIIS: error= 2.89D-02 at cycle  11 NSaved=  11.
 NSaved=11 IEnMin=10 EnMin= -617.704488987326     IErMin= 7 ErrMin= 1.11D-02
 ErrMax= 2.89D-02  0.00D+00 EMaxC= 1.00D-01 BMatC= 1.10D-01 BMatP= 1.86D-02
 IDIUse=2 WtCom= 0.00D+00 WtEn= 1.00D+00
 EnCoef did    65 forward-backward iterations
 Coeff-En:   0.000D+00 0.000D+00 0.000D+00 0.000D+00 0.000D+00 0.000D+00
 Coeff-En:   0.610D-01 0.000D+00 0.253D-03 0.643D+00 0.296D+00
 Coeff:      0.000D+00 0.000D+00 0.000D+00 0.000D+00 0.000D+00 0.000D+00
 Coeff:      0.610D-01 0.000D+00 0.253D-03 0.643D+00 0.296D+00
 Gap=     0.012 Goal=   None    Shift=    0.000
 RMSDP=1.06D-02 MaxDP=5.15D-01 DE= 4.87D-01 OVMax= 9.99D-01

 Cycle  12  Pass 1  IDiag  1:
 RMSU=  3.31D-04    CP:  9.75D-01  7.61D-02  2.57D-01  1.71D-01  7.56D-01
                    CP: -7.48D-02  8.30D-01  6.31D-01  1.06D-01  1.84D+00
                    CP: -3.24D-02
 E= -617.717308684622     Delta-E=       -0.499670006554 Rises=F Damp=F
 DIIS: error= 1.23D-02 at cycle  12 NSaved=  12.
 NSaved=12 IEnMin=12 EnMin= -617.717308684622     IErMin= 7 ErrMin= 1.11D-02
 ErrMax= 1.23D-02  0.00D+00 EMaxC= 1.00D-01 BMatC= 2.07D-02 BMatP= 1.86D-02
 IDIUse=2 WtCom= 0.00D+00 WtEn= 1.00D+00
 EnCoef did   100 forward-backward iterations
 Coeff-En:   0.000D+00 0.000D+00 0.000D+00 0.429D-03 0.000D+00 0.000D+00
 Coeff-En:   0.000D+00 0.196D-03 0.432D-01 0.285D+00 0.243D+00 0.428D+00
 Coeff:      0.000D+00 0.000D+00 0.000D+00 0.429D-03 0.000D+00 0.000D+00
 Coeff:      0.000D+00 0.196D-03 0.432D-01 0.285D+00 0.243D+00 0.428D+00
 Gap=     0.002 Goal=   None    Shift=    0.000
 RMSDP=1.86D-03 MaxDP=5.91D-02 DE=-5.00D-01 OVMax= 1.36D-01

 Cycle  13  Pass 1  IDiag  1:
 RMSU=  8.59D-04    CP:  9.72D-01  5.71D-02  2.05D-01  2.21D-01  7.41D-01
                    CP: -7.99D-02  5.63D-01  9.54D-01  1.85D-01  1.10D+00
                    CP:  1.12D-01  3.00D+00
 E= -617.719224986815     Delta-E=       -0.001916302193 Rises=F Damp=F
 DIIS: error= 2.80D-02 at cycle  13 NSaved=  13.
 NSaved=13 IEnMin=13 EnMin= -617.719224986815     IErMin= 7 ErrMin= 1.11D-02
 ErrMax= 2.80D-02  0.00D+00 EMaxC= 1.00D-01 BMatC= 1.90D-02 BMatP= 1.86D-02
 IDIUse=3 WtCom= 8.60D-01 WtEn= 1.40D-01
 EnCoef did   100 forward-backward iterations
 Coeff-Com: -0.628D+00 0.894D+00 0.100D-01 0.136D+00 0.751D-01-0.275D+00
 Coeff-Com:  0.342D+00 0.450D+01-0.517D-01-0.687D+01 0.192D+00 0.318D+01
 Coeff-Com: -0.510D+00
 Coeff-En:   0.000D+00 0.000D+00 0.000D+00 0.518D-03 0.000D+00 0.000D+00
 Coeff-En:   0.000D+00 0.236D-03 0.953D-04 0.161D+00 0.284D+00 0.438D+00
 Coeff-En:   0.116D+00
 Coeff:     -0.540D+00 0.768D+00 0.862D-02 0.117D+00 0.646D-01-0.236D+00
 Coeff:      0.294D+00 0.387D+01-0.444D-01-0.588D+01 0.205D+00 0.279D+01
 Coeff:     -0.422D+00
 Gap=    -0.092 Goal=   None    Shift=    0.000
 RMSDP=1.19D-02 MaxDP=4.98D-01 DE=-1.92D-03 OVMax= 6.74D-01

 Cycle  14  Pass 1  IDiag  1:
 RMSU=  4.28D-04    CP:  9.58D-01  3.52D-01  4.05D-01  7.47D-01 -2.15D-01
                    CP:  7.91D-01 -1.67D-01  1.70D-01  2.04D+00 -3.06D-01
                    CP:  1.41D+00  3.21D-01 -9.25D-02
 E= -617.198485666934     Delta-E=        0.520739319881 Rises=F Damp=F
 DIIS: error= 3.07D-02 at cycle  14 NSaved=  14.
 NSaved=14 IEnMin=13 EnMin= -617.719224986815     IErMin= 7 ErrMin= 1.11D-02
 ErrMax= 3.07D-02  0.00D+00 EMaxC= 1.00D-01 BMatC= 1.20D-01 BMatP= 1.86D-02
 IDIUse=2 WtCom= 0.00D+00 WtEn= 1.00D+00
 EnCoef did   100 forward-backward iterations
 Rare condition: small coef for last iteration:  0.330D-14
 Coeff-En:   0.000D+00 0.000D+00 0.000D+00 0.000D+00 0.000D+00 0.409D-02
 Coeff-En:   0.132D-01 0.000D+00 0.155D-02 0.833D-02 0.178D-01 0.441D-01
 Coeff-En:   0.660D+00 0.251D+00
 Coeff:      0.000D+00 0.000D+00 0.000D+00 0.000D+00 0.000D+00 0.409D-02
 Coeff:      0.132D-01 0.000D+00 0.155D-02 0.833D-02 0.178D-01 0.441D-01
 Coeff:      0.660D+00 0.251D+00
 Gap=     0.011 Goal=   None    Shift=    0.000
 RMSDP=1.19D-02 MaxDP=4.80D-01 DE= 5.21D-01 OVMax= 9.60D-01

 Cycle  15  Pass 1  IDiag  1:
 RMSU=  1.17D-03    CP:  9.72D-01  9.04D-02  3.53D-01  1.87D-01  6.89D-01
                    CP: -1.07D-01  9.56D-01  3.35D-01  4.84D-01  3.00D+00
                    CP:  1.07D-01  3.00D+00  1.61D+00  1.17D-01
 E= -617.747446096079     Delta-E=       -0.548960429146 Rises=F Damp=F
 DIIS: error= 2.83D-02 at cycle  15 NSaved=  15.
 NSaved=15 IEnMin=15 EnMin= -617.747446096079     IErMin= 7 ErrMin= 1.11D-02
 ErrMax= 2.83D-02  0.00D+00 EMaxC= 1.00D-01 BMatC= 3.22D-02 BMatP= 1.86D-02
 IDIUse=2 WtCom= 0.00D+00 WtEn= 1.00D+00
 EnCoef did   100 forward-backward iterations
 Coeff-En:   0.000D+00 0.000D+00 0.000D+00 0.000D+00 0.000D+00 0.300D-02
 Coeff-En:   0.117D-02 0.000D+00 0.296D-03 0.210D-01 0.151D+00 0.471D+00
 Coeff-En:   0.228D+00 0.125D+00 0.666D-04
 Coeff:      0.000D+00 0.000D+00 0.000D+00 0.000D+00 0.000D+00 0.300D-02
 Coeff:      0.117D-02 0.000D+00 0.296D-03 0.210D-01 0.151D+00 0.471D+00
 Coeff:      0.228D+00 0.125D+00 0.666D-04
 Gap=     0.000 Goal=   None    Shift=    0.000
 RMSDP=2.71D-03 MaxDP=7.44D-02 DE=-5.49D-01 OVMax= 2.61D-01

 Cycle  16  Pass 1  IDiag  1:
 RMSU=  5.16D-04    CP:  9.70D-01  6.24D-02  2.19D-01  2.58D-01  7.01D-01
                    CP: -6.04D-02  5.54D-01  8.26D-01  4.92D-01  1.51D+00
                    CP:  2.62D-01  3.00D+00  2.21D+00 -7.95D-02  4.36D-01
 E= -617.768838007232     Delta-E=       -0.021391911152 Rises=F Damp=F
 DIIS: error= 2.72D-02 at cycle  16 NSaved=  16.
 NSaved=16 IEnMin=16 EnMin= -617.768838007232     IErMin= 7 ErrMin= 1.11D-02
 ErrMax= 2.72D-02  0.00D+00 EMaxC= 1.00D-01 BMatC= 1.37D-02 BMatP= 1.86D-02
 IDIUse=3 WtCom= 8.60D-01 WtEn= 1.40D-01
 EnCoef did   100 forward-backward iterations
 Coeff-Com: -0.413D-01 0.865D-01-0.189D-01 0.289D+00-0.729D-01 0.615D+00
 Coeff-Com: -0.338D+00 0.339D+01-0.144D+01-0.366D+01 0.925D+00 0.312D+01
 Coeff-Com: -0.412D+01-0.312D+00-0.158D+00 0.272D+01
 Coeff-En:   0.000D+00 0.000D+00 0.000D+00 0.000D+00 0.000D+00 0.000D+00
 Coeff-En:   0.000D+00 0.000D+00 0.000D+00 0.000D+00 0.167D+00 0.000D+00
 Coeff-En:   0.000D+00 0.365D-01 0.130D+00 0.667D+00
 Coeff:     -0.355D-01 0.743D-01-0.163D-01 0.249D+00-0.627D-01 0.529D+00
 Coeff:     -0.290D+00 0.292D+01-0.124D+01-0.314D+01 0.819D+00 0.269D+01
 Coeff:     -0.354D+01-0.263D+00-0.118D+00 0.243D+01
 Gap=    -0.009 Goal=   None    Shift=    0.000
 RMSDP=7.65D-03 MaxDP=4.26D-01 DE=-2.14D-02 OVMax= 8.10D-01

 Cycle  17  Pass 1  IDiag  1:
 RMSU=  1.04D-03    CP:  9.45D-01  1.30D-01  3.38D-01  7.06D-01  5.50D-02
                    CP:  2.56D-01  1.58D-01 -4.99D-01  2.90D+00  6.90D-01
                    CP:  1.61D+00  3.00D+00  1.54D+00 -3.16D-01  8.36D-01
                    CP:  6.33D-01
 E= -617.331102746815     Delta-E=        0.437735260417 Rises=F Damp=F
 DIIS: error= 4.03D-02 at cycle  17 NSaved=  17.
 NSaved=17 IEnMin=16 EnMin= -617.768838007232     IErMin= 7 ErrMin= 1.11D-02
 ErrMax= 4.03D-02  0.00D+00 EMaxC= 1.00D-01 BMatC= 1.12D-01 BMatP= 1.37D-02
 IDIUse=2 WtCom= 0.00D+00 WtEn= 1.00D+00
 EnCoef did   100 forward-backward iterations
 Coeff-En:   0.000D+00 0.000D+00 0.000D+00 0.000D+00 0.000D+00 0.000D+00
 Coeff-En:   0.000D+00 0.000D+00 0.000D+00 0.000D+00 0.220D-02 0.000D+00
 Coeff-En:   0.000D+00 0.315D-02 0.138D+00 0.639D+00 0.218D+00
 Coeff:      0.000D+00 0.000D+00 0.000D+00 0.000D+00 0.000D+00 0.000D+00
 Coeff:      0.000D+00 0.000D+00 0.000D+00 0.000D+00 0.220D-02 0.000D+00
 Coeff:      0.000D+00 0.315D-02 0.138D+00 0.639D+00 0.218D+00
 Gap=     0.013 Goal=   None    Shift=    0.000
 RMSDP=5.80D-03 MaxDP=2.86D-01 DE= 4.38D-01 OVMax= 6.07D-01

 Cycle  18  Pass 1  IDiag  1:
 RMSU=  5.69D-04    CP:  9.62D-01  7.64D-02  2.77D-01  3.71D-01  5.14D-01
                    CP:  1.90D-02  5.65D-01  2.40D-01  1.52D+00  2.72D+00
                    CP:  6.95D-01  3.00D+00  3.00D+00 -6.05D-01  1.44D+00
                    CP:  2.00D+00  3.33D-01
 E= -617.808436472805     Delta-E=       -0.477333725990 Rises=F Damp=F
 DIIS: error= 1.59D-02 at cycle  18 NSaved=  18.
 NSaved=18 IEnMin=18 EnMin= -617.808436472805     IErMin= 7 ErrMin= 1.11D-02
 ErrMax= 1.59D-02  0.00D+00 EMaxC= 1.00D-01 BMatC= 5.07D-03 BMatP= 1.37D-02
 IDIUse=3 WtCom= 8.60D-01 WtEn= 1.40D-01
 Coeff-Com:  0.374D-01-0.447D-01-0.336D-02 0.107D+00-0.101D-01 0.686D-01
 Coeff-Com: -0.710D-01 0.165D+00-0.296D+00-0.340D+00 0.234D+00 0.251D+00
 Coeff-Com: -0.333D-01-0.550D-01-0.154D-01 0.328D+00-0.104D+00 0.782D+00
 Coeff-En:   0.000D+00 0.000D+00 0.000D+00 0.000D+00 0.000D+00 0.000D+00
 Coeff-En:   0.000D+00 0.000D+00 0.000D+00 0.000D+00 0.000D+00 0.000D+00
 Coeff-En:   0.000D+00 0.000D+00 0.000D+00 0.310D+00 0.000D+00 0.690D+00
 Coeff:      0.321D-01-0.384D-01-0.289D-02 0.918D-01-0.868D-02 0.590D-01
 Coeff:     -0.611D-01 0.142D+00-0.254D+00-0.293D+00 0.202D+00 0.216D+00
 Coeff:     -0.287D-01-0.473D-01-0.133D-01 0.326D+00-0.896D-01 0.769D+00
 Gap=     0.020 Goal=   None    Shift=    0.000
 RMSDP=5.19D-04 MaxDP=1.42D-02 DE=-4.77D-01 OVMax= 1.89D-02

 Cycle  19  Pass 1  IDiag  1:
 RMSU=  1.79D-04    CP:  9.60D-01  6.60D-02  2.69D-01  3.83D-01  5.01D-01
                    CP: -1.63D-02  5.32D-01  2.98D-01  1.62D+00  2.57D+00
                    CP:  7.10D-01  3.00D+00  3.00D+00 -9.53D-01  1.28D+00
                    CP:  2.18D+00  4.47D-01  1.13D+00
 E= -617.805491855194     Delta-E=        0.002944617612 Rises=F Damp=F
 DIIS: error= 1.71D-02 at cycle  19 NSaved=  19.
 NSaved=19 IEnMin=18 EnMin= -617.808436472805     IErMin= 7 ErrMin= 1.11D-02
 ErrMax= 1.71D-02  0.00D+00 EMaxC= 1.00D-01 BMatC= 6.66D-03 BMatP= 5.07D-03
 IDIUse=2 WtCom= 0.00D+00 WtEn= 1.00D+00
 Rare condition: small coef for last iteration:  0.000D+00
 Coeff-En:   0.000D+00 0.000D+00 0.000D+00 0.000D+00 0.000D+00 0.000D+00
 Coeff-En:   0.000D+00 0.000D+00 0.000D+00 0.000D+00 0.000D+00 0.000D+00
 Coeff-En:   0.000D+00 0.000D+00 0.104D-01 0.333D+00 0.000D+00 0.000D+00
 Coeff-En:   0.657D+00
 Coeff:      0.000D+00 0.000D+00 0.000D+00 0.000D+00 0.000D+00 0.000D+00
 Coeff:      0.000D+00 0.000D+00 0.000D+00 0.000D+00 0.000D+00 0.000D+00
 Coeff:      0.000D+00 0.000D+00 0.104D-01 0.333D+00 0.000D+00 0.000D+00
 Coeff:      0.657D+00
 Gap=     0.022 Goal=   None    Shift=    0.000
 RMSDP=2.33D-03 MaxDP=1.22D-01 DE= 2.94D-03 OVMax= 2.52D-01

 Cycle  20  Pass 1  IDiag  1:
 RMSU=  3.07D-04    CP:  9.68D-01  6.19D-02  2.82D-01  2.40D-01  6.40D-01
                    CP: -6.05D-02  6.93D-01  4.79D-01  9.74D-01  2.84D+00
                    CP:  2.47D-01  3.00D+00  2.64D+00 -7.74D-01  9.39D-01
                    CP:  1.12D+00  8.58D-02  3.67D-01  1.03D+00
 E= -617.802431606912     Delta-E=        0.003060248282 Rises=F Damp=F
 DIIS: error= 1.36D-02 at cycle  20 NSaved=  20.
 NSaved=20 IEnMin=18 EnMin= -617.808436472805     IErMin= 7 ErrMin= 1.11D-02
 ErrMax= 1.36D-02  0.00D+00 EMaxC= 1.00D-01 BMatC= 7.88D-03 BMatP= 5.07D-03
 IDIUse=2 WtCom= 0.00D+00 WtEn= 1.00D+00
 EnCoef did    37 forward-backward iterations
 Coeff-En:   0.000D+00 0.000D+00 0.000D+00 0.000D+00 0.000D+00 0.000D+00
 Coeff-En:   0.000D+00 0.000D+00 0.000D+00 0.000D+00 0.000D+00 0.000D+00
 Coeff-En:   0.000D+00 0.000D+00 0.000D+00 0.153D+00 0.000D+00 0.172D-02
 Coeff-En:   0.571D+00 0.274D+00
 Coeff:      0.000D+00 0.000D+00 0.000D+00 0.000D+00 0.000D+00 0.000D+00
 Coeff:      0.000D+00 0.000D+00 0.000D+00 0.000D+00 0.000D+00 0.000D+00
 Coeff:      0.000D+00 0.000D+00 0.000D+00 0.153D+00 0.000D+00 0.172D-02
 Coeff:      0.571D+00 0.274D+00
 Gap=     0.022 Goal=   None    Shift=    0.000
 RMSDP=1.26D-03 MaxDP=2.66D-02 DE= 3.06D-03 OVMax= 1.04D-01

 Cycle  21  Pass 1  IDiag  1:
 Restarting incremental Fock formation.
 E= -617.809915241498     Delta-E=       -0.007483634586 Rises=F Damp=F
 DIIS: error= 1.42D-02 at cycle  21 NSaved=  20.
 NSaved=20 IEnMin=20 EnMin= -617.809915241498     IErMin= 6 ErrMin= 1.11D-02
 ErrMax= 1.42D-02  0.00D+00 EMaxC= 1.00D-01 BMatC= 3.77D-03 BMatP= 5.07D-03
 IDIUse=3 WtCom= 8.60D-01 WtEn= 1.40D-01
 EnCoef did    90 forward-backward iterations
 Coeff-Com: -0.123D-01 0.180D-01-0.893D-02-0.315D-02-0.486D-02 0.313D-02
 Coeff-Com: -0.262D-02 0.559D-02 0.228D-01 0.529D-01-0.464D-01-0.306D-01
 Coeff-Com: -0.379D-01-0.631D-02 0.205D-01-0.229D-01 0.604D-01 0.407D+00
 Coeff-Com:  0.222D+00 0.364D+00
 Coeff-En:   0.000D+00 0.000D+00 0.000D+00 0.000D+00 0.000D+00 0.000D+00
 Coeff-En:   0.000D+00 0.000D+00 0.000D+00 0.000D+00 0.000D+00 0.000D+00
 Coeff-En:   0.000D+00 0.000D+00 0.000D+00 0.000D+00 0.482D+00 0.101D-03
 Coeff-En:   0.579D-01 0.460D+00
 Coeff:     -0.106D-01 0.154D-01-0.768D-02-0.271D-02-0.418D-02 0.269D-02
 Coeff:     -0.225D-02 0.481D-02 0.196D-01 0.455D-01-0.399D-01-0.263D-01
 Coeff:     -0.326D-01-0.543D-02 0.176D-01-0.197D-01 0.119D+00 0.350D+00
 Coeff:      0.199D+00 0.378D+00
 Gap=     0.022 Goal=   None    Shift=    0.000
 RMSDP=7.83D-04 MaxDP=3.25D-02 DE=-7.48D-03 OVMax= 6.10D-02

 Cycle  22  Pass 1  IDiag  1:
 RMSU=  7.83D-04    CP:  1.00D+00
 E= -617.819662744095     Delta-E=       -0.009747502598 Rises=F Damp=F
 DIIS: error= 2.43D-03 at cycle  22 NSaved=  20.
 NSaved=20 IEnMin=20 EnMin= -617.819662744095     IErMin=20 ErrMin= 2.43D-03
 ErrMax= 2.43D-03  0.00D+00 EMaxC= 1.00D-01 BMatC= 1.99D-04 BMatP= 3.77D-03
 IDIUse=3 WtCom= 9.76D-01 WtEn= 2.43D-02
 Coeff-Com: -0.103D-01 0.145D-01-0.478D-03-0.258D-02 0.109D-01 0.529D-01
 Coeff-Com: -0.683D-02-0.692D-01 0.412D-01 0.236D-01-0.562D-01-0.271D-01
 Coeff-Com: -0.110D-01 0.368D-01-0.124D-01 0.251D-01 0.220D+00 0.505D-01
 Coeff-Com:  0.139D+00 0.581D+00
 Coeff-En:   0.000D+00 0.000D+00 0.000D+00 0.000D+00 0.000D+00 0.000D+00
 Coeff-En:   0.000D+00 0.000D+00 0.000D+00 0.000D+00 0.000D+00 0.000D+00
 Coeff-En:   0.000D+00 0.000D+00 0.000D+00 0.000D+00 0.130D+00 0.000D+00
 Coeff-En:   0.000D+00 0.870D+00
 Coeff:     -0.100D-01 0.142D-01-0.467D-03-0.252D-02 0.106D-01 0.516D-01
 Coeff:     -0.666D-02-0.675D-01 0.402D-01 0.230D-01-0.548D-01-0.264D-01
 Coeff:     -0.108D-01 0.359D-01-0.121D-01 0.245D-01 0.218D+00 0.493D-01
 Coeff:      0.136D+00 0.588D+00
 Gap=     0.021 Goal=   None    Shift=    0.000
 RMSDP=1.35D-04 MaxDP=5.69D-03 DE=-9.75D-03 OVMax= 1.27D-02

 Cycle  23  Pass 1  IDiag  1:
 RMSU=  1.15D-04    CP:  1.00D+00  1.09D+00
 E= -617.820052227302     Delta-E=       -0.000389483207 Rises=F Damp=F
 DIIS: error= 8.34D-04 at cycle  23 NSaved=  20.
 NSaved=20 IEnMin=20 EnMin= -617.820052227302     IErMin=20 ErrMin= 8.34D-04
 ErrMax= 8.34D-04  0.00D+00 EMaxC= 1.00D-01 BMatC= 2.79D-05 BMatP= 1.99D-04
 IDIUse=3 WtCom= 9.92D-01 WtEn= 8.34D-03
 Coeff-Com: -0.247D-02 0.376D-02 0.166D-02 0.129D-02 0.110D-02-0.159D-01
 Coeff-Com: -0.319D-02 0.293D-01 0.339D-02-0.276D-01-0.130D-01-0.109D-01
 Coeff-Com:  0.403D-02-0.671D-02-0.151D-01 0.128D+00 0.157D+00 0.155D+00
 Coeff-Com: -0.142D+01 0.203D+01
 Coeff-En:   0.000D+00 0.000D+00 0.000D+00 0.000D+00 0.000D+00 0.000D+00
 Coeff-En:   0.000D+00 0.000D+00 0.000D+00 0.000D+00 0.000D+00 0.000D+00
 Coeff-En:   0.000D+00 0.000D+00 0.000D+00 0.377D-01 0.000D+00 0.000D+00
 Coeff-En:   0.000D+00 0.962D+00
 Coeff:     -0.245D-02 0.373D-02 0.165D-02 0.128D-02 0.109D-02-0.158D-01
 Coeff:     -0.316D-02 0.290D-01 0.336D-02-0.274D-01-0.129D-01-0.108D-01
 Coeff:      0.399D-02-0.665D-02-0.149D-01 0.127D+00 0.156D+00 0.153D+00
 Coeff:     -0.140D+01 0.202D+01
 Gap=     0.022 Goal=   None    Shift=    0.000
 RMSDP=1.46D-04 MaxDP=4.65D-03 DE=-3.89D-04 OVMax= 1.12D-02

 Cycle  24  Pass 1  IDiag  1:
 RMSU=  1.28D-04    CP:  1.00D+00  1.07D+00  1.58D+00
 E= -617.820064576655     Delta-E=       -0.000012349353 Rises=F Damp=F
 DIIS: error= 9.88D-04 at cycle  24 NSaved=  20.
 NSaved=20 IEnMin=20 EnMin= -617.820064576655     IErMin=19 ErrMin= 8.34D-04
 ErrMax= 9.88D-04  0.00D+00 EMaxC= 1.00D-01 BMatC= 3.01D-05 BMatP= 2.79D-05
 IDIUse=3 WtCom= 9.92D-01 WtEn= 8.34D-03
 Coeff-Com:  0.131D-04 0.429D-03 0.308D-02 0.488D-02 0.488D-02-0.169D-03
 Coeff-Com:  0.460D-02 0.144D-02-0.142D-01-0.374D-01-0.110D-01 0.359D-01
 Coeff-Com: -0.363D-02-0.149D-01 0.851D-01 0.978D-01 0.328D-01-0.853D+00
 Coeff-Com:  0.204D+00 0.146D+01
 Coeff-En:   0.000D+00 0.000D+00 0.000D+00 0.000D+00 0.000D+00 0.000D+00
 Coeff-En:   0.000D+00 0.000D+00 0.000D+00 0.000D+00 0.000D+00 0.000D+00
 Coeff-En:   0.000D+00 0.000D+00 0.413D-01 0.000D+00 0.000D+00 0.000D+00
 Coeff-En:   0.000D+00 0.959D+00
 Coeff:      0.130D-04 0.425D-03 0.306D-02 0.484D-02 0.484D-02-0.168D-03
 Coeff:      0.457D-02 0.143D-02-0.141D-01-0.371D-01-0.109D-01 0.356D-01
 Coeff:     -0.360D-02-0.148D-01 0.847D-01 0.970D-01 0.326D-01-0.846D+00
 Coeff:      0.202D+00 0.146D+01
 Gap=     0.022 Goal=   None    Shift=    0.000
 RMSDP=1.81D-04 MaxDP=5.59D-03 DE=-1.23D-05 OVMax= 1.35D-02

 Cycle  25  Pass 1  IDiag  1:
 RMSU=  2.61D-05    CP:  1.00D+00  1.05D+00  2.05D+00  2.32D+00
 E= -617.820040737085     Delta-E=        0.000023839570 Rises=F Damp=F
 DIIS: error= 1.28D-03 at cycle  25 NSaved=  20.
 NSaved=20 IEnMin=19 EnMin= -617.820064576655     IErMin=18 ErrMin= 8.34D-04
 ErrMax= 1.28D-03  0.00D+00 EMaxC= 1.00D-01 BMatC= 5.10D-05 BMatP= 2.79D-05
 IDIUse=3 WtCom= 9.92D-01 WtEn= 8.34D-03
 Coeff-Com:  0.455D-03-0.104D-03 0.438D-02 0.910D-02 0.102D-01-0.262D-02
 Coeff-Com:  0.100D-02-0.165D-01-0.443D-01-0.101D-01 0.507D-01-0.279D-02
 Coeff-Com: -0.258D-01 0.881D-01 0.785D-01-0.513D-02-0.749D+00-0.659D-01
 Coeff-Com:  0.110D+01 0.581D+00
 Coeff-En:   0.000D+00 0.000D+00 0.000D+00 0.000D+00 0.000D+00 0.000D+00
 Coeff-En:   0.000D+00 0.000D+00 0.000D+00 0.000D+00 0.000D+00 0.000D+00
 Coeff-En:   0.000D+00 0.561D-01 0.000D+00 0.000D+00 0.000D+00 0.000D+00
 Coeff-En:   0.000D+00 0.944D+00
 Coeff:      0.451D-03-0.103D-03 0.434D-02 0.902D-02 0.101D-01-0.259D-02
 Coeff:      0.994D-03-0.164D-01-0.439D-01-0.100D-01 0.503D-01-0.277D-02
 Coeff:     -0.256D-01 0.878D-01 0.779D-01-0.509D-02-0.743D+00-0.654D-01
 Coeff:      0.109D+01 0.584D+00
 Gap=     0.022 Goal=   None    Shift=    0.000
 RMSDP=1.23D-04 MaxDP=3.84D-03 DE= 2.38D-05 OVMax= 9.62D-03

 Cycle  26  Pass 1  IDiag  1:
 RMSU=  2.68D-05    CP:  1.00D+00  1.05D+00  2.42D+00  3.00D+00  1.93D+00
 E= -617.820054502152     Delta-E=       -0.000013765068 Rises=F Damp=F
 DIIS: error= 1.23D-03 at cycle  26 NSaved=  20.
 NSaved=20 IEnMin=18 EnMin= -617.820064576655     IErMin=17 ErrMin= 8.34D-04
 ErrMax= 1.23D-03  0.00D+00 EMaxC= 1.00D-01 BMatC= 5.24D-05 BMatP= 2.79D-05
 IDIUse=3 WtCom= 9.92D-01 WtEn= 8.34D-03
 Coeff-Com: -0.335D-03 0.993D-03 0.530D-02 0.132D-01-0.476D-03 0.116D-01
 Coeff-Com: -0.340D-01-0.359D-01-0.855D-02 0.467D-01-0.191D-02-0.347D-01
 Coeff-Com:  0.930D-01 0.937D-01 0.267D-01-0.105D+01 0.662D+00 0.520D+00
 Coeff-Com: -0.336D+00 0.103D+01
 Coeff-En:   0.000D+00 0.000D+00 0.000D+00 0.000D+00 0.000D+00 0.000D+00
 Coeff-En:   0.000D+00 0.000D+00 0.000D+00 0.000D+00 0.000D+00 0.000D+00
 Coeff-En:   0.526D-01 0.000D+00 0.000D+00 0.000D+00 0.000D+00 0.000D+00
 Coeff-En:   0.000D+00 0.947D+00
 Coeff:     -0.332D-03 0.985D-03 0.525D-02 0.131D-01-0.472D-03 0.115D-01
 Coeff:     -0.337D-01-0.356D-01-0.848D-02 0.464D-01-0.190D-02-0.344D-01
 Coeff:      0.927D-01 0.929D-01 0.264D-01-0.104D+01 0.657D+00 0.516D+00
 Coeff:     -0.333D+00 0.103D+01
 Gap=     0.022 Goal=   None    Shift=    0.000
 RMSDP=9.20D-05 MaxDP=2.74D-03 DE=-1.38D-05 OVMax= 7.38D-03

 Cycle  27  Pass 1  IDiag  1:
 RMSU=  3.22D-05    CP:  1.00D+00  1.04D+00  2.65D+00  3.00D+00  2.84D+00
                    CP:  3.00D+00
 E= -617.820051827203     Delta-E=        0.000002674949 Rises=F Damp=F
 DIIS: error= 1.25D-03 at cycle  27 NSaved=  20.
 NSaved=20 IEnMin=17 EnMin= -617.820064576655     IErMin=16 ErrMin= 8.34D-04
 ErrMax= 1.25D-03  0.00D+00 EMaxC= 1.00D-01 BMatC= 5.90D-05 BMatP= 2.79D-05
 IDIUse=3 WtCom= 9.92D-01 WtEn= 8.34D-03
 Rare condition: small coef for last iteration:  0.000D+00
 Coeff-Com:  0.425D-04 0.279D-03 0.548D-02 0.141D-01 0.595D-02 0.103D-01
 Coeff-Com: -0.269D-01-0.544D-01-0.106D-01 0.565D-01-0.421D-01 0.508D-01
 Coeff-Com:  0.885D-01-0.500D-03-0.124D+01 0.384D+00 0.181D+01-0.241D+00
 Coeff-Com: -0.219D+01 0.239D+01
 Coeff-En:   0.000D+00 0.000D+00 0.000D+00 0.000D+00 0.000D+00 0.000D+00
 Coeff-En:   0.000D+00 0.000D+00 0.000D+00 0.000D+00 0.000D+00 0.537D-01
 Coeff-En:   0.000D+00 0.000D+00 0.000D+00 0.000D+00 0.000D+00 0.000D+00
 Coeff-En:   0.000D+00 0.946D+00
 Coeff:      0.425D-04 0.279D-03 0.548D-02 0.141D-01 0.595D-02 0.103D-01
 Coeff:     -0.269D-01-0.544D-01-0.106D-01 0.565D-01-0.421D-01 0.508D-01
 Coeff:      0.885D-01-0.500D-03-0.124D+01 0.384D+00 0.181D+01-0.241D+00
 Coeff:     -0.219D+01 0.239D+01
 Gap=     0.022 Goal=   None    Shift=    0.000
 RMSDP=8.81D-05 MaxDP=3.27D-03 DE= 2.67D-06 OVMax= 6.47D-03

 Cycle  28  Pass 1  IDiag  1:
 RMSU=  2.65D-05    CP:  1.00D+00  1.00D+00  2.73D+00  3.00D+00  3.00D+00
                    CP:  3.00D+00  3.00D+00
 E= -617.819957506859     Delta-E=        0.000094320344 Rises=F Damp=F
 DIIS: error= 1.77D-03 at cycle  28 NSaved=  20.
 NSaved=20 IEnMin=16 EnMin= -617.820064576655     IErMin=15 ErrMin= 8.34D-04
 ErrMax= 1.77D-03  0.00D+00 EMaxC= 1.00D-01 BMatC= 1.04D-04 BMatP= 2.79D-05
 IDIUse=3 WtCom= 9.92D-01 WtEn= 8.34D-03
 Rare condition: small coef for last iteration:  0.000D+00
 Coeff-Com:  0.247D-03 0.390D-02 0.743D-02-0.296D-01 0.591D-01-0.500D-01
 Coeff-Com: -0.328D-02-0.185D-02-0.151D-01 0.873D-02-0.240D-01 0.942D-01
 Coeff-Com:  0.152D+00-0.154D+01 0.811D+00 0.126D+01-0.166D+01-0.160D+01
 Coeff-Com:  0.610D+01-0.257D+01
 Coeff-En:   0.000D+00 0.000D+00 0.000D+00 0.000D+00 0.000D+00 0.000D+00
 Coeff-En:   0.000D+00 0.000D+00 0.000D+00 0.000D+00 0.808D-01 0.000D+00
 Coeff-En:   0.000D+00 0.000D+00 0.000D+00 0.000D+00 0.000D+00 0.000D+00
 Coeff-En:   0.000D+00 0.919D+00
 Coeff:      0.247D-03 0.390D-02 0.743D-02-0.296D-01 0.591D-01-0.500D-01
 Coeff:     -0.328D-02-0.185D-02-0.151D-01 0.873D-02-0.240D-01 0.942D-01
 Coeff:      0.152D+00-0.154D+01 0.811D+00 0.126D+01-0.166D+01-0.160D+01
 Coeff:      0.610D+01-0.257D+01
 Gap=     0.022 Goal=   None    Shift=    0.000
 RMSDP=1.54D-04 MaxDP=5.07D-03 DE= 9.43D-05 OVMax= 1.27D-02

 Cycle  29  Pass 1  IDiag  1:
 RMSU=  1.11D-04    CP:  1.00D+00  1.01D+00  3.00D+00  3.00D+00  3.00D+00
                    CP:  3.00D+00  3.00D+00  3.00D+00
 E= -617.820082690049     Delta-E=       -0.000125183190 Rises=F Damp=F
 DIIS: error= 1.28D-03 at cycle  29 NSaved=  20.
 NSaved=20 IEnMin=20 EnMin= -617.820082690049     IErMin=14 ErrMin= 8.34D-04
 ErrMax= 1.28D-03  0.00D+00 EMaxC= 1.00D-01 BMatC= 5.56D-05 BMatP= 2.79D-05
 IDIUse=3 WtCom= 9.92D-01 WtEn= 8.34D-03
 Coeff-Com: -0.364D-05 0.304D-02-0.428D-01 0.835D-01-0.567D-01 0.534D-02
 Coeff-Com:  0.245D-02-0.177D-01 0.505D-01-0.916D-01 0.104D+00 0.157D+00
 Coeff-Com: -0.147D+01 0.498D+00 0.285D+01-0.806D+00-0.774D+01 0.944D+01
 Coeff-Com: -0.420D+01 0.223D+01
 Coeff-En:   0.000D+00 0.000D+00 0.000D+00 0.000D+00 0.000D+00 0.000D+00
 Coeff-En:   0.000D+00 0.000D+00 0.000D+00 0.447D-01 0.000D+00 0.000D+00
 Coeff-En:   0.000D+00 0.000D+00 0.000D+00 0.000D+00 0.000D+00 0.000D+00
 Coeff-En:   0.000D+00 0.955D+00
 Coeff:     -0.361D-05 0.301D-02-0.424D-01 0.828D-01-0.562D-01 0.529D-02
 Coeff:      0.243D-02-0.175D-01 0.501D-01-0.904D-01 0.103D+00 0.156D+00
 Coeff:     -0.145D+01 0.494D+00 0.282D+01-0.800D+00-0.767D+01 0.936D+01
 Coeff:     -0.416D+01 0.222D+01
 Gap=     0.022 Goal=   None    Shift=    0.000
 RMSDP=2.59D-04 MaxDP=7.76D-03 DE=-1.25D-04 OVMax= 2.08D-02

 Cycle  30  Pass 1  IDiag  1:
 RMSU=  1.13D-04    CP:  1.00D+00  9.60D-01  3.00D+00  3.00D+00  3.00D+00
                    CP:  3.00D+00  3.00D+00  3.00D+00  3.00D+00
 E= -617.820118580926     Delta-E=       -0.000035890878 Rises=F Damp=F
 DIIS: error= 1.28D-03 at cycle  30 NSaved=  20.
 NSaved=20 IEnMin=20 EnMin= -617.820118580926     IErMin=13 ErrMin= 8.34D-04
 ErrMax= 1.28D-03  0.00D+00 EMaxC= 1.00D-01 BMatC= 4.91D-05 BMatP= 2.79D-05
 IDIUse=3 WtCom= 9.92D-01 WtEn= 8.34D-03
 Coeff-Com:  0.726D-02-0.258D-01 0.541D-01-0.428D-01-0.108D-01-0.180D-03
 Coeff-Com:  0.163D-01 0.299D-01-0.623D-01 0.759D-01 0.648D-01-0.617D+00
 Coeff-Com:  0.172D-01 0.143D+01-0.410D+00-0.452D+01 0.721D+01-0.497D+01
 Coeff-Com:  0.124D+01 0.152D+01
 Coeff-En:   0.000D+00 0.000D+00 0.000D+00 0.000D+00 0.000D+00 0.000D+00
 Coeff-En:   0.000D+00 0.000D+00 0.293D-01 0.000D+00 0.000D+00 0.000D+00
 Coeff-En:   0.000D+00 0.000D+00 0.000D+00 0.000D+00 0.000D+00 0.000D+00
 Coeff-En:   0.000D+00 0.971D+00
 Coeff:      0.720D-02-0.256D-01 0.537D-01-0.425D-01-0.107D-01-0.178D-03
 Coeff:      0.162D-01 0.296D-01-0.616D-01 0.752D-01 0.642D-01-0.612D+00
 Coeff:      0.171D-01 0.142D+01-0.406D+00-0.448D+01 0.715D+01-0.493D+01
 Coeff:      0.123D+01 0.152D+01
 Gap=     0.022 Goal=   None    Shift=    0.000
 RMSDP=4.14D-04 MaxDP=1.22D-02 DE=-3.59D-05 OVMax= 3.25D-02

 Cycle  31  Pass 1  IDiag  1:
 RMSU=  3.51D-04    CP:  1.00D+00  9.11D-01  3.00D+00  3.00D+00  3.00D+00
                    CP:  3.00D+00  3.00D+00  3.00D+00  3.00D+00  2.91D+00
 E= -617.820217607909     Delta-E=       -0.000099026983 Rises=F Damp=F
 DIIS: error= 7.81D-04 at cycle  31 NSaved=  20.
 NSaved=20 IEnMin=20 EnMin= -617.820217607909     IErMin=20 ErrMin= 7.81D-04
 ErrMax= 7.81D-04  0.00D+00 EMaxC= 1.00D-01 BMatC= 2.15D-05 BMatP= 2.79D-05
 IDIUse=3 WtCom= 9.92D-01 WtEn= 7.81D-03
 Coeff-Com:  0.820D-02 0.181D-01-0.202D-01-0.362D-01-0.270D-02 0.399D-01
 Coeff-Com:  0.199D-01-0.107D-01 0.382D-01-0.118D-01-0.156D+00-0.237D+00
 Coeff-Com:  0.196D+01 0.824D+00-0.341D+01 0.201D+01-0.500D+00-0.105D+01
 Coeff-Com: -0.347D-01 0.155D+01
 Coeff-En:   0.000D+00 0.000D+00 0.000D+00 0.000D+00 0.000D+00 0.000D+00
 Coeff-En:   0.000D+00 0.000D+00 0.000D+00 0.000D+00 0.000D+00 0.000D+00
 Coeff-En:   0.000D+00 0.000D+00 0.000D+00 0.000D+00 0.000D+00 0.000D+00
 Coeff-En:   0.000D+00 0.100D+01
 Coeff:      0.814D-02 0.180D-01-0.201D-01-0.359D-01-0.268D-02 0.396D-01
 Coeff:      0.198D-01-0.107D-01 0.379D-01-0.117D-01-0.155D+00-0.235D+00
 Coeff:      0.195D+01 0.818D+00-0.339D+01 0.200D+01-0.496D+00-0.104D+01
 Coeff:     -0.345D-01 0.155D+01
 Gap=     0.022 Goal=   None    Shift=    0.000
 RMSDP=2.10D-04 MaxDP=6.59D-03 DE=-9.90D-05 OVMax= 1.57D-02

 Cycle  32  Pass 1  IDiag  1:
 RMSU=  6.69D-05    CP:  1.00D+00  8.55D-01  3.00D+00  3.00D+00  3.00D+00
                    CP:  3.00D+00  3.00D+00  3.00D+00  3.00D+00  2.47D+00
                    CP:  4.67D-01
 E= -617.819882872109     Delta-E=        0.000334735801 Rises=F Damp=F
 DIIS: error= 2.28D-03 at cycle  32 NSaved=  20.
 NSaved=20 IEnMin=19 EnMin= -617.820217607909     IErMin=19 ErrMin= 7.81D-04
 ErrMax= 2.28D-03  0.00D+00 EMaxC= 1.00D-01 BMatC= 1.54D-04 BMatP= 2.15D-05
 IDIUse=3 WtCom= 9.92D-01 WtEn= 7.81D-03
 Rare condition: small coef for last iteration:  0.000D+00
 Coeff-Com:  0.722D-02-0.169D-02-0.194D-01-0.726D-02 0.901D-02 0.165D-01
 Coeff-Com: -0.144D-01 0.468D-01 0.474D-01 0.388D-02 0.264D-01 0.499D+00
 Coeff-Com:  0.440D+00 0.114D+01 0.958D+00-0.241D+01-0.786D+00-0.201D+01
 Coeff-Com:  0.251D+01 0.552D+00
 Coeff-En:   0.000D+00 0.000D+00 0.000D+00 0.000D+00 0.000D+00 0.000D+00
 Coeff-En:   0.856D-01 0.000D+00 0.000D+00 0.000D+00 0.000D+00 0.000D+00
 Coeff-En:   0.000D+00 0.000D+00 0.000D+00 0.000D+00 0.000D+00 0.000D+00
 Coeff-En:   0.000D+00 0.914D+00
 Coeff:      0.722D-02-0.169D-02-0.194D-01-0.726D-02 0.901D-02 0.165D-01
 Coeff:     -0.144D-01 0.468D-01 0.474D-01 0.388D-02 0.264D-01 0.499D+00
 Coeff:      0.440D+00 0.114D+01 0.958D+00-0.241D+01-0.786D+00-0.201D+01
 Coeff:      0.251D+01 0.552D+00
 Gap=     0.022 Goal=   None    Shift=    0.000
 RMSDP=1.96D-04 MaxDP=5.58D-03 DE= 3.35D-04 OVMax= 1.74D-02

 Cycle  33  Pass 1  IDiag  1:
 RMSU=  5.41D-05    CP:  1.00D+00  8.08D-01  3.00D+00  3.00D+00  3.00D+00
                    CP:  3.00D+00  3.00D+00  3.00D+00  3.00D+00  3.00D+00
                    CP:  9.10D-01  1.15D+00
 E= -617.819894376784     Delta-E=       -0.000011504675 Rises=F Damp=F
 DIIS: error= 2.28D-03 at cycle  33 NSaved=  20.
 NSaved=20 IEnMin=18 EnMin= -617.820217607909     IErMin=18 ErrMin= 7.81D-04
 ErrMax= 2.28D-03  0.00D+00 EMaxC= 1.00D-01 BMatC= 1.53D-04 BMatP= 2.15D-05
 IDIUse=3 WtCom= 9.92D-01 WtEn= 7.81D-03
 Rare condition: small coef for last iteration:  0.000D+00
 Coeff-Com:  0.114D-02-0.331D-02-0.371D-02-0.394D-02 0.135D-01 0.166D-03
 Coeff-Com:  0.214D-01 0.172D-01 0.396D+00-0.448D+00-0.532D+00 0.113D+01
 Coeff-Com:  0.304D+01 0.229D+00-0.453D+01-0.834D+00 0.641D-01 0.144D+01
 Coeff-Com:  0.367D+01-0.267D+01
 Coeff-En:   0.000D+00 0.000D+00 0.000D+00 0.000D+00 0.000D+00 0.760D-01
 Coeff-En:   0.000D+00 0.000D+00 0.000D+00 0.000D+00 0.000D+00 0.000D+00
 Coeff-En:   0.000D+00 0.000D+00 0.000D+00 0.000D+00 0.000D+00 0.000D+00
 Coeff-En:   0.000D+00 0.924D+00
 Coeff:      0.114D-02-0.331D-02-0.371D-02-0.394D-02 0.135D-01 0.166D-03
 Coeff:      0.214D-01 0.172D-01 0.396D+00-0.448D+00-0.532D+00 0.113D+01
 Coeff:      0.304D+01 0.229D+00-0.453D+01-0.834D+00 0.641D-01 0.144D+01
 Coeff:      0.367D+01-0.267D+01
 Gap=     0.022 Goal=   None    Shift=    0.000
 RMSDP=2.29D-04 MaxDP=9.32D-03 DE=-1.15D-05 OVMax= 1.65D-02

 Cycle  34  Pass 1  IDiag  1:
 RMSU=  3.17D-05    CP:  1.00D+00  9.31D-01  3.00D+00  3.00D+00  3.00D+00
                    CP:  3.00D+00  3.00D+00  3.00D+00  3.00D+00  2.22D+00
                    CP:  5.35D-01  1.01D-01  7.32D-02
 E= -617.820177727488     Delta-E=       -0.000283350704 Rises=F Damp=F
 DIIS: error= 1.04D-03 at cycle  34 NSaved=  20.
 NSaved=20 IEnMin=17 EnMin= -617.820217607909     IErMin=17 ErrMin= 7.81D-04
 ErrMax= 1.04D-03  0.00D+00 EMaxC= 1.00D-01 BMatC= 3.09D-05 BMatP= 2.15D-05
 IDIUse=3 WtCom= 9.92D-01 WtEn= 7.81D-03
 Coeff-Com:  0.715D-02 0.847D-03-0.206D-01 0.148D-01 0.195D-01-0.730D-02
 Coeff-Com:  0.725D-02 0.380D+00-0.162D+00-0.998D+00 0.600D+00 0.247D+01
 Coeff-Com: -0.174D+01-0.911D+00-0.158D+01 0.406D-01 0.400D+00 0.457D+01
 Coeff-Com: -0.443D+01 0.233D+01
 Coeff-En:   0.000D+00 0.000D+00 0.000D+00 0.000D+00 0.000D+00 0.000D+00
 Coeff-En:   0.000D+00 0.000D+00 0.000D+00 0.000D+00 0.000D+00 0.000D+00
 Coeff-En:   0.000D+00 0.000D+00 0.000D+00 0.000D+00 0.000D+00 0.000D+00
 Coeff-En:   0.000D+00 0.100D+01
 Coeff:      0.709D-02 0.840D-03-0.205D-01 0.147D-01 0.193D-01-0.724D-02
 Coeff:      0.720D-02 0.377D+00-0.161D+00-0.990D+00 0.596D+00 0.245D+01
 Coeff:     -0.172D+01-0.903D+00-0.157D+01 0.403D-01 0.396D+00 0.454D+01
 Coeff:     -0.439D+01 0.232D+01
 Gap=     0.022 Goal=   None    Shift=    0.000
 RMSDP=1.50D-04 MaxDP=4.12D-03 DE=-2.83D-04 OVMax= 1.19D-02

 Cycle  35  Pass 1  IDiag  1:
 RMSU=  4.02D-05    CP:  9.99D-01  1.02D+00  3.00D+00  3.00D+00  3.00D+00
                    CP:  3.00D+00  3.00D+00  3.00D+00  3.00D+00  2.63D+00
                    CP:  7.86D-01 -8.49D-01  4.16D-02  2.56D+00
 E= -617.820237688733     Delta-E=       -0.000059961245 Rises=F Damp=F
 DIIS: error= 5.70D-04 at cycle  35 NSaved=  20.
 NSaved=20 IEnMin=20 EnMin= -617.820237688733     IErMin=20 ErrMin= 5.70D-04
 ErrMax= 5.70D-04  0.00D+00 EMaxC= 1.00D-01 BMatC= 9.50D-06 BMatP= 2.15D-05
 IDIUse=3 WtCom= 9.94D-01 WtEn= 5.70D-03
 EnCoef did   100 forward-backward iterations
 Coeff-Com: -0.182D-02-0.445D-02 0.767D-02 0.175D-01 0.166D-01 0.374D-02
 Coeff-Com:  0.253D+00-0.163D+00-0.710D+00 0.702D+00 0.209D+01-0.454D+00
 Coeff-Com: -0.242D+01-0.112D+01 0.154D+00 0.727D+00 0.405D+01-0.389D+01
 Coeff-Com:  0.201D+01-0.269D+00
 Coeff-En:   0.000D+00 0.000D+00 0.000D+00 0.000D+00 0.000D+00 0.000D+00
 Coeff-En:   0.000D+00 0.000D+00 0.000D+00 0.000D+00 0.000D+00 0.000D+00
 Coeff-En:   0.000D+00 0.000D+00 0.000D+00 0.410D+00 0.000D+00 0.507D-03
 Coeff-En:   0.587D-02 0.584D+00
 Coeff:     -0.181D-02-0.442D-02 0.763D-02 0.174D-01 0.165D-01 0.371D-02
 Coeff:      0.251D+00-0.162D+00-0.706D+00 0.698D+00 0.208D+01-0.452D+00
 Coeff:     -0.241D+01-0.111D+01 0.153D+00 0.725D+00 0.402D+01-0.387D+01
 Coeff:      0.200D+01-0.264D+00
 Gap=     0.022 Goal=   None    Shift=    0.000
 RMSDP=6.37D-05 MaxDP=1.67D-03 DE=-6.00D-05 OVMax= 4.99D-03

 Cycle  36  Pass 1  IDiag  1:
 RMSU=  1.84D-06    CP:  1.00D+00  9.80D-01  3.00D+00  3.00D+00  3.00D+00
                    CP:  3.00D+00  3.00D+00  3.00D+00  3.00D+00  2.40D+00
                    CP:  7.10D-01 -5.09D-01  5.76D-02  1.67D+00  4.42D-01
 E= -617.820255976346     Delta-E=       -0.000018287613 Rises=F Damp=F
 DIIS: error= 8.76D-05 at cycle  36 NSaved=  20.
 NSaved=20 IEnMin=20 EnMin= -617.820255976346     IErMin=20 ErrMin= 8.76D-05
 ErrMax= 8.76D-05  0.00D+00 EMaxC= 1.00D-01 BMatC= 4.22D-07 BMatP= 9.50D-06
 IDIUse=1 WtCom= 1.00D+00 WtEn= 0.00D+00
 Coeff-Com: -0.542D-02 0.121D-01 0.110D-01 0.831D-02 0.435D-02 0.262D+00
 Coeff-Com: -0.243D+00-0.340D+00 0.734D+00 0.960D+00-0.423D+00-0.150D+01
 Coeff-Com: -0.112D+01 0.133D+00 0.821D+00 0.349D+01-0.325D+01 0.187D+01
 Coeff-Com:  0.740D+00-0.117D+01
 Coeff:     -0.542D-02 0.121D-01 0.110D-01 0.831D-02 0.435D-02 0.262D+00
 Coeff:     -0.243D+00-0.340D+00 0.734D+00 0.960D+00-0.423D+00-0.150D+01
 Coeff:     -0.112D+01 0.133D+00 0.821D+00 0.349D+01-0.325D+01 0.187D+01
 Coeff:      0.740D+00-0.117D+01
 Gap=     0.022 Goal=   None    Shift=    0.000
 RMSDP=1.38D-04 MaxDP=3.50D-03 DE=-1.83D-05 OVMax= 1.32D-02

 Cycle  37  Pass 1  IDiag  1:
 RMSU=  2.47D-06    CP:  9.99D-01  9.62D-01  3.00D+00  3.00D+00  3.00D+00
                    CP:  3.00D+00  3.00D+00  3.00D+00  3.00D+00  3.00D+00
                    CP:  9.89D-01 -4.47D-01  4.60D-01  2.04D+00  1.07D+00
                    CP: -4.72D-02
 E= -617.820267114561     Delta-E=       -0.000011138215 Rises=F Damp=F
 DIIS: error= 8.05D-05 at cycle  37 NSaved=  20.
 NSaved=20 IEnMin=20 EnMin= -617.820267114561     IErMin=20 ErrMin= 8.05D-05
 ErrMax= 8.05D-05  0.00D+00 EMaxC= 1.00D-01 BMatC= 2.40D-07 BMatP= 4.22D-07
 IDIUse=1 WtCom= 1.00D+00 WtEn= 0.00D+00
 Coeff-Com: -0.198D-02 0.275D-01 0.752D-02-0.177D-01 0.652D-01-0.206D+00
 Coeff-Com: -0.748D-01 0.147D+01 0.233D+01-0.170D+01-0.187D+01-0.101D+01
 Coeff-Com:  0.862D+00 0.141D+01 0.214D+01-0.253D+01 0.148D+01-0.178D+01
 Coeff-Com: -0.853D+01 0.892D+01
 Coeff:     -0.198D-02 0.275D-01 0.752D-02-0.177D-01 0.652D-01-0.206D+00
 Coeff:     -0.748D-01 0.147D+01 0.233D+01-0.170D+01-0.187D+01-0.101D+01
 Coeff:      0.862D+00 0.141D+01 0.214D+01-0.253D+01 0.148D+01-0.178D+01
 Coeff:     -0.853D+01 0.892D+01
 Gap=     0.022 Goal=   None    Shift=    0.000
 RMSDP=4.29D-04 MaxDP=1.37D-02 DE=-1.11D-05 OVMax= 4.36D-02

 Cycle  38  Pass 1  IDiag  1:
 RMSU=  1.91D-04    CP:  9.99D-01  8.11D-01  3.00D+00  3.00D+00  3.00D+00
                    CP:  3.00D+00  3.00D+00  3.00D+00  3.00D+00  3.00D+00
                    CP:  1.57D+00  7.98D-01  3.00D+00  1.82D+00  3.00D+00
                    CP: -3.00D+00  3.00D+00
 E= -617.820229709508     Delta-E=        0.000037405053 Rises=F Damp=F
 DIIS: error= 9.15D-04 at cycle  38 NSaved=  20.
 NSaved=20 IEnMin=19 EnMin= -617.820267114561     IErMin=19 ErrMin= 8.05D-05
 ErrMax= 9.15D-04  0.00D+00 EMaxC= 1.00D-01 BMatC= 2.77D-05 BMatP= 2.40D-07
 IDIUse=1 WtCom= 1.00D+00 WtEn= 0.00D+00
 Coeff-Com: -0.351D-03 0.237D-01-0.180D-01 0.603D-01-0.710D-01-0.233D-01
 Coeff-Com:  0.120D+01 0.202D+01-0.209D+01-0.608D+00-0.116D+01 0.342D+00
 Coeff-Com:  0.147D+01 0.145D+01-0.174D+01 0.117D+01-0.151D+01-0.854D+01
 Coeff-Com:  0.908D+01-0.559D-01
 Coeff:     -0.351D-03 0.237D-01-0.180D-01 0.603D-01-0.710D-01-0.233D-01
 Coeff:      0.120D+01 0.202D+01-0.209D+01-0.608D+00-0.116D+01 0.342D+00
 Coeff:      0.147D+01 0.145D+01-0.174D+01 0.117D+01-0.151D+01-0.854D+01
 Coeff:      0.908D+01-0.559D-01
 Gap=     0.022 Goal=   None    Shift=    0.000
 RMSDP=1.54D-04 MaxDP=4.05D-03 DE= 3.74D-05 OVMax= 1.48D-02

 Cycle  39  Pass 1  IDiag  1:
 RMSU=  1.98D-05    CP:  9.99D-01  7.78D-01  3.00D+00  3.00D+00  3.00D+00
                    CP:  3.00D+00  3.00D+00  3.00D+00  3.00D+00  3.00D+00
                    CP:  1.88D+00  8.43D-01  3.00D+00  1.43D+00  3.00D+00
                    CP: -3.00D+00  3.00D+00  1.53D+00
 E= -617.820259462174     Delta-E=       -0.000029752666 Rises=F Damp=F
 DIIS: error= 7.49D-04 at cycle  39 NSaved=  20.
 NSaved=20 IEnMin=18 EnMin= -617.820267114561     IErMin=18 ErrMin= 8.05D-05
 ErrMax= 7.49D-04  0.00D+00 EMaxC= 1.00D-01 BMatC= 1.93D-05 BMatP= 2.40D-07
 IDIUse=1 WtCom= 1.00D+00 WtEn= 0.00D+00
 Coeff-Com:  0.106D-01-0.120D-01 0.166D+00-0.321D+00 0.209D+00 0.111D+01
 Coeff-Com:  0.968D+00-0.740D+00-0.140D+01-0.690D+00 0.380D+00 0.147D+01
 Coeff-Com:  0.119D+01-0.125D+01 0.951D+00-0.448D+00-0.792D+01 0.736D+01
 Coeff-Com: -0.445D-02-0.335D-01
 Coeff:      0.106D-01-0.120D-01 0.166D+00-0.321D+00 0.209D+00 0.111D+01
 Coeff:      0.968D+00-0.740D+00-0.140D+01-0.690D+00 0.380D+00 0.147D+01
 Coeff:      0.119D+01-0.125D+01 0.951D+00-0.448D+00-0.792D+01 0.736D+01
 Coeff:     -0.445D-02-0.335D-01
 Gap=     0.022 Goal=   None    Shift=    0.000
 RMSDP=7.39D-05 MaxDP=2.40D-03 DE=-2.98D-05 OVMax= 6.70D-03

 Cycle  40  Pass 1  IDiag  1:
 RMSU=  7.68D-06    CP:  9.99D-01  7.95D-01  3.00D+00  3.00D+00  3.00D+00
                    CP:  3.00D+00  3.00D+00  3.00D+00  3.00D+00  3.00D+00
                    CP:  2.07D+00  5.25D-01  3.00D+00  1.21D+00  3.00D+00
                    CP: -3.00D+00  3.00D+00  1.60D+00  1.96D+00
 E= -617.820302918782     Delta-E=       -0.000043456608 Rises=F Damp=F
 DIIS: error= 2.38D-04 at cycle  40 NSaved=  20.
 NSaved=20 IEnMin=20 EnMin= -617.820302918782     IErMin=17 ErrMin= 8.05D-05
 ErrMax= 2.38D-04  0.00D+00 EMaxC= 1.00D-01 BMatC= 2.26D-06 BMatP= 2.40D-07
 IDIUse=1 WtCom= 1.00D+00 WtEn= 0.00D+00
 Coeff-Com: -0.468D-02-0.125D+00 0.297D+00 0.524D+00 0.683D+00 0.110D+01
 Coeff-Com: -0.264D+01 0.155D+01-0.917D+00-0.127D+01 0.216D+01-0.159D+01
 Coeff-Com:  0.142D+01-0.673D+00-0.101D+01-0.366D+01 0.337D+01 0.294D+01
 Coeff-Com: -0.464D+01 0.348D+01
 Coeff:     -0.468D-02-0.125D+00 0.297D+00 0.524D+00 0.683D+00 0.110D+01
 Coeff:     -0.264D+01 0.155D+01-0.917D+00-0.127D+01 0.216D+01-0.159D+01
 Coeff:      0.142D+01-0.673D+00-0.101D+01-0.366D+01 0.337D+01 0.294D+01
 Coeff:     -0.464D+01 0.348D+01
 Gap=     0.022 Goal=   None    Shift=    0.000
 RMSDP=7.02D-04 MaxDP=1.98D-02 DE=-4.35D-05 OVMax= 7.00D-02

 Cycle  41  Pass 1  IDiag  1:
 Restarting incremental Fock formation.
 E= -617.820329009806     Delta-E=       -0.000026091024 Rises=F Damp=F
 DIIS: error= 3.34D-04 at cycle  41 NSaved=  20.
 NSaved=20 IEnMin=20 EnMin= -617.820329009806     IErMin=16 ErrMin= 8.05D-05
 ErrMax= 3.34D-04  0.00D+00 EMaxC= 1.00D-01 BMatC= 4.54D-06 BMatP= 2.40D-07
 IDIUse=1 WtCom= 1.00D+00 WtEn= 0.00D+00
 Coeff-Com: -0.153D+00 0.366D+00 0.457D+00 0.556D-01 0.455D+00-0.190D+01
 Coeff-Com:  0.215D+01-0.667D+00-0.133D+01 0.251D+01-0.353D+01 0.304D+01
 Coeff-Com: -0.140D+01-0.470D+00-0.247D+01 0.271D+01 0.765D+01-0.746D+01
 Coeff-Com: -0.414D+00 0.141D+01
 Coeff:     -0.153D+00 0.366D+00 0.457D+00 0.556D-01 0.455D+00-0.190D+01
 Coeff:      0.215D+01-0.667D+00-0.133D+01 0.251D+01-0.353D+01 0.304D+01
 Coeff:     -0.140D+01-0.470D+00-0.247D+01 0.271D+01 0.765D+01-0.746D+01
 Coeff:     -0.414D+00 0.141D+01
 Gap=     0.022 Goal=   None    Shift=    0.000
 RMSDP=1.29D-04 MaxDP=4.93D-03 DE=-2.61D-05 OVMax= 1.25D-02

 Cycle  42  Pass 1  IDiag  1:
 RMSU=  1.29D-04    CP:  1.00D+00
 E= -617.820342776845     Delta-E=       -0.000013767039 Rises=F Damp=F
 DIIS: error= 1.05D-04 at cycle  42 NSaved=  20.
 NSaved=20 IEnMin=20 EnMin= -617.820342776845     IErMin=15 ErrMin= 8.05D-05
 ErrMax= 1.05D-04  0.00D+00 EMaxC= 1.00D-01 BMatC= 4.28D-07 BMatP= 2.40D-07
 IDIUse=1 WtCom= 1.00D+00 WtEn= 0.00D+00
 Coeff-Com: -0.101D+00-0.378D-01 0.262D+00 0.115D+01 0.434D+00-0.166D+01
 Coeff-Com:  0.158D+00 0.349D+00 0.147D+01-0.155D+01 0.144D+01-0.625D+00
 Coeff-Com:  0.553D+00-0.440D+01 0.407D+01 0.795D+01-0.712D+01-0.449D+01
 Coeff-Com:  0.840D+00 0.233D+01
 Coeff:     -0.101D+00-0.378D-01 0.262D+00 0.115D+01 0.434D+00-0.166D+01
 Coeff:      0.158D+00 0.349D+00 0.147D+01-0.155D+01 0.144D+01-0.625D+00
 Coeff:      0.553D+00-0.440D+01 0.407D+01 0.795D+01-0.712D+01-0.449D+01
 Coeff:      0.840D+00 0.233D+01
 Gap=     0.022 Goal=   None    Shift=    0.000
 RMSDP=2.29D-04 MaxDP=7.30D-03 DE=-1.38D-05 OVMax= 2.26D-02

 Cycle  43  Pass 1  IDiag  1:
 RMSU=  2.18D-04    CP:  1.00D+00  1.52D+00
 E= -617.819739853363     Delta-E=        0.000602923482 Rises=F Damp=F
 DIIS: error= 2.38D-03 at cycle  43 NSaved=  20.
 NSaved=20 IEnMin=19 EnMin= -617.820342776845     IErMin=14 ErrMin= 8.05D-05
 ErrMax= 2.38D-03  0.00D+00 EMaxC= 1.00D-01 BMatC= 2.46D-04 BMatP= 2.40D-07
 IDIUse=1 WtCom= 1.00D+00 WtEn= 0.00D+00
 Coeff-Com: -0.228D+00 0.153D+00 0.294D+00-0.233D-02 0.985D+00-0.133D+01
 Coeff-Com:  0.136D+00 0.463D+00 0.736D+00 0.344D+00 0.157D-01 0.255D+01
 Coeff-Com: -0.781D+01 0.539D+01 0.471D+01-0.270D+01-0.463D+01-0.127D+01
 Coeff-Com:  0.357D+01-0.362D+00
 Coeff:     -0.228D+00 0.153D+00 0.294D+00-0.233D-02 0.985D+00-0.133D+01
 Coeff:      0.136D+00 0.463D+00 0.736D+00 0.344D+00 0.157D-01 0.255D+01
 Coeff:     -0.781D+01 0.539D+01 0.471D+01-0.270D+01-0.463D+01-0.127D+01
 Coeff:      0.357D+01-0.362D+00
 Gap=     0.022 Goal=   None    Shift=    0.000
 RMSDP=3.63D-04 MaxDP=1.25D-02 DE= 6.03D-04 OVMax= 3.24D-02

 Cycle  44  Pass 1  IDiag  1:
 RMSU=  7.11D-05    CP:  1.00D+00 -1.18D+00  1.33D+00
 E= -617.819982619055     Delta-E=       -0.000242765692 Rises=F Damp=F
 DIIS: error= 1.92D-03 at cycle  44 NSaved=  20.
 NSaved=20 IEnMin=18 EnMin= -617.820342776845     IErMin=13 ErrMin= 8.05D-05
 ErrMax= 1.92D-03  0.00D+00 EMaxC= 1.00D-01 BMatC= 1.44D-04 BMatP= 2.40D-07
 IDIUse=1 WtCom= 1.00D+00 WtEn= 0.00D+00
 Coeff-Com: -0.197D+00 0.116D+00 0.103D+00-0.171D+00 0.103D+01-0.108D+01
 Coeff-Com:  0.123D+00 0.558D+00 0.518D+00 0.115D+00 0.187D+01-0.614D+01
 Coeff-Com:  0.467D+01 0.614D+01-0.388D+01-0.458D+01-0.775D+00 0.309D+01
 Coeff-Com:  0.161D-01-0.516D+00
 Coeff:     -0.197D+00 0.116D+00 0.103D+00-0.171D+00 0.103D+01-0.108D+01
 Coeff:      0.123D+00 0.558D+00 0.518D+00 0.115D+00 0.187D+01-0.614D+01
 Coeff:      0.467D+01 0.614D+01-0.388D+01-0.458D+01-0.775D+00 0.309D+01
 Coeff:      0.161D-01-0.516D+00
 Gap=     0.022 Goal=   None    Shift=    0.000
 RMSDP=1.91D-04 MaxDP=5.26D-03 DE=-2.43D-04 OVMax= 2.00D-02

 Cycle  45  Pass 1  IDiag  1:
 RMSU=  3.90D-05    CP:  1.00D+00 -2.54D+00  1.61D+00  6.77D-01
 E= -617.819938307412     Delta-E=        0.000044311643 Rises=F Damp=F
 DIIS: error= 2.06D-03 at cycle  45 NSaved=  20.
 NSaved=20 IEnMin=18 EnMin= -617.820342776845     IErMin=13 ErrMin= 8.05D-05
 ErrMax= 2.06D-03  0.00D+00 EMaxC= 1.00D-01 BMatC= 1.58D-04 BMatP= 2.40D-07
 IDIUse=1 WtCom= 1.00D+00 WtEn= 0.00D+00
 Coeff-Com: -0.176D+00 0.667D-01 0.117D+00-0.177D-01 0.819D+00-0.981D+00
 Coeff-Com:  0.659D-01 0.611D+00 0.455D+00 0.527D+00 0.157D+01-0.732D+01
 Coeff-Com:  0.574D+01 0.609D+01-0.449D+01-0.299D+01-0.895D+00 0.239D+01
 Coeff-Com:  0.659D+00-0.124D+01
 Coeff:     -0.176D+00 0.667D-01 0.117D+00-0.177D-01 0.819D+00-0.981D+00
 Coeff:      0.659D-01 0.611D+00 0.455D+00 0.527D+00 0.157D+01-0.732D+01
 Coeff:      0.574D+01 0.609D+01-0.449D+01-0.299D+01-0.895D+00 0.239D+01
 Coeff:      0.659D+00-0.124D+01
 Gap=     0.022 Goal=   None    Shift=    0.000
 RMSDP=2.95D-04 MaxDP=1.03D-02 DE= 4.43D-05 OVMax= 2.76D-02

 Cycle  46  Pass 1  IDiag  1:
 RMSU=  2.28D-04    CP:  1.00D+00 -3.00D+00  1.86D+00  8.07D-01  2.02D+00
 E= -617.820122978208     Delta-E=       -0.000184670795 Rises=F Damp=F
 DIIS: error= 1.48D-03 at cycle  46 NSaved=  20.
 NSaved=20 IEnMin=17 EnMin= -617.820342776845     IErMin=12 ErrMin= 8.05D-05
 ErrMax= 1.48D-03  0.00D+00 EMaxC= 1.00D-01 BMatC= 7.61D-05 BMatP= 2.40D-07
 IDIUse=1 WtCom= 1.00D+00 WtEn= 0.00D+00
 Coeff-Com: -0.804D-01 0.783D-01-0.108D+00-0.502D+00 0.578D+00-0.145D+00
 Coeff-Com:  0.239D+00 0.419D+00 0.788D+00 0.189D+01-0.674D+01 0.489D+01
 Coeff-Com:  0.538D+01-0.368D+01-0.252D+01-0.981D+00 0.198D+01 0.103D+01
 Coeff-Com: -0.191D+01 0.377D+00
 Coeff:     -0.804D-01 0.783D-01-0.108D+00-0.502D+00 0.578D+00-0.145D+00
 Coeff:      0.239D+00 0.419D+00 0.788D+00 0.189D+01-0.674D+01 0.489D+01
 Coeff:      0.538D+01-0.368D+01-0.252D+01-0.981D+00 0.198D+01 0.103D+01
 Coeff:     -0.191D+01 0.377D+00
 Gap=     0.022 Goal=   None    Shift=    0.000
 RMSDP=1.18D-04 MaxDP=5.11D-03 DE=-1.85D-04 OVMax= 9.84D-03

 Cycle  47  Pass 1  IDiag  1:
 RMSU=  7.14D-06    CP:  1.00D+00 -3.00D+00  1.68D+00  9.39D-01  2.33D+00
                    CP:  1.48D+00
 E= -617.820276981308     Delta-E=       -0.000154003101 Rises=F Damp=F
 DIIS: error= 5.45D-04 at cycle  47 NSaved=  20.
 NSaved=20 IEnMin=17 EnMin= -617.820342776845     IErMin=12 ErrMin= 8.05D-05
 ErrMax= 5.45D-04  0.00D+00 EMaxC= 1.00D-01 BMatC= 1.08D-05 BMatP= 2.40D-07
 IDIUse=1 WtCom= 1.00D+00 WtEn= 0.00D+00
 Coeff-Com: -0.158D+00 0.541D-01-0.300D+00-0.541D+00 0.852D+00-0.235D+00
 Coeff-Com:  0.510D+00 0.431D+00 0.355D+00 0.178D+01-0.830D+01 0.660D+01
 Coeff-Com:  0.925D+01-0.506D+01-0.654D+01-0.670D+00 0.271D+01 0.297D+00
 Coeff-Com: -0.327D+01 0.323D+01
 Coeff:     -0.158D+00 0.541D-01-0.300D+00-0.541D+00 0.852D+00-0.235D+00
 Coeff:      0.510D+00 0.431D+00 0.355D+00 0.178D+01-0.830D+01 0.660D+01
 Coeff:      0.925D+01-0.506D+01-0.654D+01-0.670D+00 0.271D+01 0.297D+00
 Coeff:     -0.327D+01 0.323D+01
 Gap=     0.022 Goal=   None    Shift=    0.000
 RMSDP=5.60D-04 MaxDP=1.66D-02 DE=-1.54D-04 OVMax= 5.97D-02

 Cycle  48  Pass 1  IDiag  1:
 RMSU=  2.32D-05    CP:  1.00D+00 -1.76D+00  9.73D-01  2.83D+00 -1.67D+00
                    CP:  9.04D-03  9.53D-01
 E= -617.820323275236     Delta-E=       -0.000046293928 Rises=F Damp=F
 DIIS: error= 3.13D-04 at cycle  48 NSaved=  20.
 NSaved=20 IEnMin=17 EnMin= -617.820342776845     IErMin=12 ErrMin= 8.05D-05
 ErrMax= 3.13D-04  0.00D+00 EMaxC= 1.00D-01 BMatC= 4.25D-06 BMatP= 2.40D-07
 IDIUse=1 WtCom= 1.00D+00 WtEn= 0.00D+00
 Large coefficients: NSaved= 20 BigCof=   12.73 CofMax=   10.00 Det=-7.23D-11
 Inversion failed.  Reducing to 19 matrices.
 Large coefficients: NSaved= 19 BigCof=   12.33 CofMax=   10.00 Det=-7.68D-11
 Inversion failed.  Reducing to 18 matrices.
 Large coefficients: NSaved= 18 BigCof=   11.90 CofMax=   10.00 Det=-7.94D-11
 Inversion failed.  Reducing to 17 matrices.
 Large coefficients: NSaved= 17 BigCof=   11.84 CofMax=   10.00 Det=-1.22D-10
 Inversion failed.  Reducing to 16 matrices.
 Large coefficients: NSaved= 16 BigCof=   12.09 CofMax=   10.00 Det=-1.37D-10
 Inversion failed.  Reducing to 15 matrices.
 Large coefficients: NSaved= 15 BigCof=   11.78 CofMax=   10.00 Det=-1.46D-10
 Inversion failed.  Reducing to 14 matrices.
 Large coefficients: NSaved= 14 BigCof=   11.03 CofMax=   10.00 Det=-1.46D-10
 Inversion failed.  Reducing to 13 matrices.
 Large coefficients: NSaved= 13 BigCof=   10.82 CofMax=   10.00 Det=-1.50D-10
 Inversion failed.  Reducing to 12 matrices.
 Coeff-Com:  0.776D-01 0.485D+00 0.437D+00-0.377D+01 0.376D+01 0.443D+01
 Coeff-Com: -0.520D+01 0.179D+01-0.815D+00 0.110D+01-0.148D+01 0.193D+00
 Coeff:      0.776D-01 0.485D+00 0.437D+00-0.377D+01 0.376D+01 0.443D+01
 Coeff:     -0.520D+01 0.179D+01-0.815D+00 0.110D+01-0.148D+01 0.193D+00
 Gap=     0.022 Goal=   None    Shift=    0.000
 RMSDP=7.38D-04 MaxDP=2.34D-02 DE=-4.63D-05 OVMax= 7.78D-02

 Cycle  49  Pass 1  IDiag  1:
 RMSU=  5.76D-05    CP:  9.99D-01 -3.00D+00  1.62D+00 -6.04D-01  3.00D+00
                    CP:  2.10D+00  1.75D+00 -5.14D-01
 E= -617.820290004536     Delta-E=        0.000033270701 Rises=F Damp=F
 DIIS: error= 1.55D-04 at cycle  49 NSaved=  13.
 NSaved=13 IEnMin=10 EnMin= -617.820342776845     IErMin= 5 ErrMin= 8.05D-05
 ErrMax= 1.55D-04  0.00D+00 EMaxC= 1.00D-01 BMatC= 1.11D-06 BMatP= 2.40D-07
 IDIUse=1 WtCom= 1.00D+00 WtEn= 0.00D+00
 Coeff-Com: -0.203D+00 0.322D+00-0.252D+00-0.225D+01 0.304D+01 0.631D+01
 Coeff-Com: -0.775D+01 0.265D+01-0.152D+01 0.186D+01-0.296D+01 0.730D+00
 Coeff-Com:  0.102D+01
 Coeff:     -0.203D+00 0.322D+00-0.252D+00-0.225D+01 0.304D+01 0.631D+01
 Coeff:     -0.775D+01 0.265D+01-0.152D+01 0.186D+01-0.296D+01 0.730D+00
 Coeff:      0.102D+01
 Gap=     0.022 Goal=   None    Shift=    0.000
 RMSDP=1.23D-04 MaxDP=4.86D-03 DE= 3.33D-05 OVMax= 8.67D-03

 Cycle  50  Pass 1  IDiag  1:
 RMSU=  7.27D-06    CP:  9.99D-01 -3.00D+00  1.54D+00 -1.12D+00  3.00D+00
                    CP:  1.60D+00  1.58D+00 -8.01D-01  9.83D-01
 E= -617.820260976409     Delta-E=        0.000029028127 Rises=F Damp=F
 DIIS: error= 6.61D-04 at cycle  50 NSaved=  14.
 NSaved=14 IEnMin=10 EnMin= -617.820342776845     IErMin= 5 ErrMin= 8.05D-05
 ErrMax= 6.61D-04  0.00D+00 EMaxC= 1.00D-01 BMatC= 1.55D-05 BMatP= 2.40D-07
 IDIUse=1 WtCom= 1.00D+00 WtEn= 0.00D+00
 Coeff-Com: -0.155D+00-0.285D+00-0.689D-01 0.342D+00 0.109D+01 0.878D+01
 Coeff-Com: -0.978D+01 0.103D+01-0.116D+01 0.248D+01-0.494D+01 0.168D+01
 Coeff-Com:  0.537D+00 0.145D+01
 Coeff:     -0.155D+00-0.285D+00-0.689D-01 0.342D+00 0.109D+01 0.878D+01
 Coeff:     -0.978D+01 0.103D+01-0.116D+01 0.248D+01-0.494D+01 0.168D+01
 Coeff:      0.537D+00 0.145D+01
 Gap=     0.021 Goal=   None    Shift=    0.000
 RMSDP=5.14D-04 MaxDP=1.85D-02 DE= 2.90D-05 OVMax= 4.84D-02

 Cycle  51  Pass 1  IDiag  1:
 RMSU=  3.47D-06    CP:  1.00D+00 -1.93D+00  1.21D+00 -1.44D+00  2.64D+00
                    CP: -8.38D-03  8.59D-01 -7.32D-01  1.74D-02  2.50D+00
 E= -617.819952887700     Delta-E=        0.000308088709 Rises=F Damp=F
 DIIS: error= 1.99D-03 at cycle  51 NSaved=  15.
 NSaved=15 IEnMin=10 EnMin= -617.820342776845     IErMin= 5 ErrMin= 8.05D-05
 ErrMax= 1.99D-03  0.00D+00 EMaxC= 1.00D-01 BMatC= 1.51D-04 BMatP= 2.40D-07
 IDIUse=1 WtCom= 1.00D+00 WtEn= 0.00D+00
 Coeff-Com:  0.385D-01 0.161D+00 0.870D+00-0.208D+01 0.214D+01 0.794D+01
 Coeff-Com: -0.821D+01 0.869D-01-0.174D+01 0.296D+01-0.469D+01 0.149D+01
 Coeff-Com:  0.239D+00 0.215D+01-0.370D+00
 Coeff:      0.385D-01 0.161D+00 0.870D+00-0.208D+01 0.214D+01 0.794D+01
 Coeff:     -0.821D+01 0.869D-01-0.174D+01 0.296D+01-0.469D+01 0.149D+01
 Coeff:      0.239D+00 0.215D+01-0.370D+00
 Gap=     0.021 Goal=   None    Shift=    0.000
 RMSDP=1.76D-04 MaxDP=5.18D-03 DE= 3.08D-04 OVMax= 1.77D-02

 Cycle  52  Pass 1  IDiag  1:
 RMSU=  1.33D-06    CP:  1.00D+00 -3.00D+00  1.43D+00 -1.63D+00  3.00D+00
                    CP:  1.08D-01  1.00D+00 -7.75D-01  4.03D-01  2.04D+00
                    CP:  8.47D-01
 E= -617.819969883148     Delta-E=       -0.000016995448 Rises=F Damp=F
 DIIS: error= 1.97D-03 at cycle  52 NSaved=  16.
 NSaved=16 IEnMin=10 EnMin= -617.820342776845     IErMin= 5 ErrMin= 8.05D-05
 ErrMax= 1.97D-03  0.00D+00 EMaxC= 1.00D-01 BMatC= 1.41D-04 BMatP= 2.40D-07
 IDIUse=1 WtCom= 1.00D+00 WtEn= 0.00D+00
 Coeff-Com:  0.383D+00 0.431D+00 0.295D+01-0.647D+01 0.411D+01 0.790D+01
 Coeff-Com: -0.686D+01-0.238D+01-0.258D+01 0.455D+01-0.389D+01 0.144D+01
 Coeff-Com: -0.615D+00 0.248D+01-0.274D+01 0.229D+01
 Coeff:      0.383D+00 0.431D+00 0.295D+01-0.647D+01 0.411D+01 0.790D+01
 Coeff:     -0.686D+01-0.238D+01-0.258D+01 0.455D+01-0.389D+01 0.144D+01
 Coeff:     -0.615D+00 0.248D+01-0.274D+01 0.229D+01
 Gap=     0.022 Goal=   None    Shift=    0.000
 RMSDP=4.55D-04 MaxDP=1.31D-02 DE=-1.70D-05 OVMax= 4.85D-02

 Cycle  53  Pass 1  IDiag  1:
 RMSU=  2.89D-06    CP:  1.00D+00 -3.87D-03  8.77D-01 -2.36D-01  7.61D-01
                    CP: -4.41D-03  7.57D-01 -3.53D-01  4.41D-03  1.70D+00
                    CP:  7.15D-01 -8.17D-01
 E= -617.820047855007     Delta-E=       -0.000077971859 Rises=F Damp=F
 DIIS: error= 1.69D-03 at cycle  53 NSaved=  17.
 NSaved=17 IEnMin=10 EnMin= -617.820342776845     IErMin= 5 ErrMin= 8.05D-05
 ErrMax= 1.69D-03  0.00D+00 EMaxC= 1.00D-01 BMatC= 1.19D-04 BMatP= 2.40D-07
 IDIUse=1 WtCom= 1.00D+00 WtEn= 0.00D+00
 Coeff-Com:  0.296D+00 0.211D+00 0.232D+01-0.551D+01 0.394D+01 0.779D+01
 Coeff-Com: -0.686D+01-0.236D+01-0.254D+01 0.468D+01-0.302D+01 0.123D+01
 Coeff-Com: -0.329D+00 0.169D+01-0.114D+01 0.121D+01-0.614D+00
 Coeff:      0.296D+00 0.211D+00 0.232D+01-0.551D+01 0.394D+01 0.779D+01
 Coeff:     -0.686D+01-0.236D+01-0.254D+01 0.468D+01-0.302D+01 0.123D+01
 Coeff:     -0.329D+00 0.169D+01-0.114D+01 0.121D+01-0.614D+00
 Gap=     0.022 Goal=   None    Shift=    0.000
 RMSDP=8.10D-05 MaxDP=2.59D-03 DE=-7.80D-05 OVMax= 8.54D-03

 Cycle  54  Pass 1  IDiag  1:
 RMSU=  1.40D-06    CP:  1.00D+00  5.18D-01  7.98D-01  2.09D-01  9.50D-02
                    CP: -1.44D-03  5.90D-01 -6.88D-02  4.48D-03  1.18D+00
                    CP:  7.19D-01 -9.51D-01  8.90D-01
 E= -617.820085239162     Delta-E=       -0.000037384155 Rises=F Damp=F
 DIIS: error= 1.57D-03 at cycle  54 NSaved=  18.
 NSaved=18 IEnMin=10 EnMin= -617.820342776845     IErMin= 5 ErrMin= 8.05D-05
 ErrMax= 1.57D-03  0.00D+00 EMaxC= 1.00D-01 BMatC= 1.05D-04 BMatP= 2.40D-07
 IDIUse=1 WtCom= 1.00D+00 WtEn= 0.00D+00
 Coeff-Com:  0.272D+00 0.235D+00 0.195D+01-0.557D+01 0.450D+01 0.754D+01
 Coeff-Com: -0.703D+01-0.220D+01-0.290D+01 0.510D+01-0.253D+01 0.844D+00
 Coeff-Com: -0.992D-01 0.145D+01-0.161D-01 0.708D+00-0.304D+01 0.180D+01
 Coeff:      0.272D+00 0.235D+00 0.195D+01-0.557D+01 0.450D+01 0.754D+01
 Coeff:     -0.703D+01-0.220D+01-0.290D+01 0.510D+01-0.253D+01 0.844D+00
 Coeff:     -0.992D-01 0.145D+01-0.161D-01 0.708D+00-0.304D+01 0.180D+01
 Gap=     0.022 Goal=   None    Shift=    0.000
 RMSDP=9.85D-05 MaxDP=3.29D-03 DE=-3.74D-05 OVMax= 1.02D-02

 Cycle  55  Pass 1  IDiag  1:
 RMSU=  1.45D-06    CP:  1.00D+00 -6.71D-02  8.95D-01 -4.45D-01  1.01D+00
                    CP: -5.61D-03  6.73D-01 -4.95D-01  2.96D-03  1.50D+00
                    CP:  3.24D-01 -6.07D-01  8.22D-01 -1.69D-01
 E= -617.820018780302     Delta-E=        0.000066458860 Rises=F Damp=F
 DIIS: error= 1.78D-03 at cycle  55 NSaved=  19.
 NSaved=19 IEnMin=10 EnMin= -617.820342776845     IErMin= 5 ErrMin= 8.05D-05
 ErrMax= 1.78D-03  0.00D+00 EMaxC= 1.00D-01 BMatC= 1.30D-04 BMatP= 2.40D-07
 IDIUse=1 WtCom= 1.00D+00 WtEn= 0.00D+00
 Coeff-Com:  0.336D+00 0.869D-01 0.210D+01-0.392D+01 0.289D+01 0.720D+01
 Coeff-Com: -0.618D+01-0.235D+01-0.207D+01 0.396D+01-0.453D+01 0.192D+01
 Coeff-Com: -0.589D+00 0.248D+01-0.708D+00 0.122D+01-0.788D+00 0.161D+01
 Coeff-Com: -0.166D+01
 Coeff:      0.336D+00 0.869D-01 0.210D+01-0.392D+01 0.289D+01 0.720D+01
 Coeff:     -0.618D+01-0.235D+01-0.207D+01 0.396D+01-0.453D+01 0.192D+01
 Coeff:     -0.589D+00 0.248D+01-0.708D+00 0.122D+01-0.788D+00 0.161D+01
 Coeff:     -0.166D+01
 Gap=     0.022 Goal=   None    Shift=    0.000
 RMSDP=1.84D-04 MaxDP=5.31D-03 DE= 6.65D-05 OVMax= 1.94D-02

 Cycle  56  Pass 1  IDiag  1:
 RMSU=  1.77D-06    CP:  1.00D+00  1.25D+00  7.74D-01  2.16D-01 -1.56D-01
                    CP:  8.17D-04  7.13D-01  1.88D-01  6.63D-03  1.46D+00
                    CP:  1.57D+00 -6.84D-01  1.27D+00  1.36D+00 -1.26D+00
 E= -617.820022379016     Delta-E=       -0.000003598714 Rises=F Damp=F
 DIIS: error= 1.74D-03 at cycle  56 NSaved=  20.
 NSaved=20 IEnMin=10 EnMin= -617.820342776845     IErMin= 5 ErrMin= 8.05D-05
 ErrMax= 1.74D-03  0.00D+00 EMaxC= 1.00D-01 BMatC= 1.32D-04 BMatP= 2.40D-07
 IDIUse=1 WtCom= 1.00D+00 WtEn= 0.00D+00
 Coeff-Com:  0.565D+00 0.197D+00 0.206D+01-0.310D+01 0.178D+01 0.264D+01
 Coeff-Com: -0.134D+01-0.285D+01-0.153D+01 0.301D+01-0.359D+01 0.174D+01
 Coeff-Com: -0.110D+01 0.304D+01 0.218D-01 0.166D+01-0.584D+01 0.418D+01
 Coeff-Com: -0.246D+01 0.192D+01
 Coeff:      0.565D+00 0.197D+00 0.206D+01-0.310D+01 0.178D+01 0.264D+01
 Coeff:     -0.134D+01-0.285D+01-0.153D+01 0.301D+01-0.359D+01 0.174D+01
 Coeff:     -0.110D+01 0.304D+01 0.218D-01 0.166D+01-0.584D+01 0.418D+01
 Coeff:     -0.246D+01 0.192D+01
 Gap=     0.022 Goal=   None    Shift=    0.000
 RMSDP=2.30D-05 MaxDP=6.93D-04 DE=-3.60D-06 OVMax= 2.17D-03

 Cycle  57  Pass 1  IDiag  1:
 RMSU=  7.81D-07    CP:  1.00D+00  1.27D+00  6.97D-01  3.80D-01 -3.71D-01
                    CP:  2.16D-03  8.70D-01  3.61D-01  1.04D-02  1.87D+00
                    CP:  2.32D+00 -1.04D+00  1.36D+00  1.49D+00 -2.47D+00
                    CP:  1.46D+00
 E= -617.820097262705     Delta-E=       -0.000074883689 Rises=F Damp=F
 DIIS: error= 1.54D-03 at cycle  57 NSaved=  20.
 NSaved=20 IEnMin=10 EnMin= -617.820342776845     IErMin= 5 ErrMin= 8.05D-05
 ErrMax= 1.54D-03  0.00D+00 EMaxC= 1.00D-01 BMatC= 1.01D-04 BMatP= 2.40D-07
 IDIUse=1 WtCom= 1.00D+00 WtEn= 0.00D+00
 Coeff-Com:  0.680D+00 0.265D+00 0.224D+01-0.352D+01 0.190D+01 0.146D+01
 Coeff-Com:  0.982D-01-0.326D+01-0.125D+01 0.270D+01-0.319D+01 0.170D+01
 Coeff-Com: -0.141D+01 0.298D+01 0.196D+01-0.741D+01 0.499D+01-0.210D+01
 Coeff-Com:  0.152D+01 0.645D+00
 Coeff:      0.680D+00 0.265D+00 0.224D+01-0.352D+01 0.190D+01 0.146D+01
 Coeff:      0.982D-01-0.326D+01-0.125D+01 0.270D+01-0.319D+01 0.170D+01
 Coeff:     -0.141D+01 0.298D+01 0.196D+01-0.741D+01 0.499D+01-0.210D+01
 Coeff:      0.152D+01 0.645D+00
 Gap=     0.022 Goal=   None    Shift=    0.000
 RMSDP=1.64D-04 MaxDP=4.69D-03 DE=-7.49D-05 OVMax= 1.73D-02

 Cycle  58  Pass 1  IDiag  1:
 RMSU=  2.33D-06    CP:  1.00D+00  2.38D+00  4.57D-01  1.00D+00 -1.36D+00
                    CP:  9.81D-03  7.95D-01  1.14D+00  2.04D-02  1.32D+00
                    CP:  2.98D+00 -1.17D+00  8.16D-01  3.00D+00 -3.00D+00
                    CP:  1.87D+00  1.06D+00
 E= -617.820202466011     Delta-E=       -0.000105203307 Rises=F Damp=F
 DIIS: error= 1.23D-03 at cycle  58 NSaved=  20.
 NSaved=20 IEnMin=10 EnMin= -617.820342776845     IErMin= 5 ErrMin= 8.05D-05
 ErrMax= 1.23D-03  0.00D+00 EMaxC= 1.00D-01 BMatC= 6.09D-05 BMatP= 2.40D-07
 IDIUse=1 WtCom= 1.00D+00 WtEn= 0.00D+00
 Large coefficients: NSaved= 20 BigCof=   13.69 CofMax=   10.00 Det=-3.54D-11
 Inversion failed.  Reducing to 19 matrices.
 Large coefficients: NSaved= 19 BigCof=   10.15 CofMax=   10.00 Det=-4.81D-11
 Inversion failed.  Reducing to 18 matrices.
[...]
 Large coefficients: NSaved= 16 BigCof=   34.10 CofMax=   10.00 Det=-1.59D-13
 Inversion failed.  Reducing to 15 matrices.
 Large coefficients: NSaved= 15 BigCof=   67.24 CofMax=   10.00 Det=-1.58D-12
 Inversion failed.  Reducing to 14 matrices.
 Large coefficients: NSaved= 14 BigCof=   71.69 CofMax=   10.00 Det=-1.59D-12
 Inversion failed.  Reducing to 13 matrices.
 Large coefficients: NSaved= 13 BigCof=   69.71 CofMax=   10.00 Det=-1.69D-12
 Inversion failed.  Reducing to 12 matrices.
 Large coefficients: NSaved= 12 BigCof=   95.71 CofMax=   10.00 Det=-2.15D-12
 Inversion failed.  Reducing to 11 matrices.
 Large coefficients: NSaved= 11 BigCof=   96.03 CofMax=   10.00 Det=-2.16D-12
 Inversion failed.  Reducing to 10 matrices.
 Large coefficients: NSaved= 10 BigCof=   88.78 CofMax=   10.00 Det=-2.24D-12
 Inversion failed.  Reducing to  9 matrices.
 Large coefficients: NSaved=  9 BigCof=   89.48 CofMax=   10.00 Det=-2.27D-12
 Inversion failed.  Reducing to  8 matrices.
 Large coefficients: NSaved=  8 BigCof=   90.44 CofMax=   10.00 Det=-2.36D-12
 Inversion failed.  Reducing to  7 matrices.
 Large coefficients: NSaved=  7 BigCof=  103.50 CofMax=   10.00 Det=-2.49D-12
 Inversion failed.  Reducing to  6 matrices.
 Large coefficients: NSaved=  6 BigCof=   92.67 CofMax=   10.00 Det=-2.53D-12
 Inversion failed.  Reducing to  5 matrices.
 Large coefficients: NSaved=  5 BigCof=   80.60 CofMax=   10.00 Det=-2.73D-12
 Inversion failed.  Reducing to  4 matrices.
 Large coefficients: NSaved=  4 BigCof=   85.76 CofMax=   10.00 Det=-4.87D-12
 Inversion failed.  Reducing to  3 matrices.
 Large coefficients: NSaved=  3 BigCof=   20.45 CofMax=   10.00 Det=-3.12D-11
 Inversion failed.  Reducing to  2 matrices.
 Large coefficients: NSaved=  2 BigCof=  166.21 CofMax=   10.00 Det=-8.54D-09
 Coeff-Com: -0.165D+03 0.166D+03
 Coeff:     -0.165D+03 0.166D+03
 Gap=     0.022 Goal=   None    Shift=    0.000
 RMSDP=4.14D-04 MaxDP=1.47D-02 DE=-6.59D-06 OVMax= 3.38D-02

 Cycle 108  Pass 1  IDiag  1:
 RMSU=  1.18D-04    CP:  1.00D+00  3.00D+00  3.00D+00  4.77D-02  3.00D+00
                    CP: -3.00D+00 -3.00D+00
 E= -617.820349924416     Delta-E=       -0.000522216805 Rises=F Damp=F
 DIIS: error= 5.69D-04 at cycle 108 NSaved=   3.
 NSaved= 3 IEnMin= 3 EnMin= -617.820349924416     IErMin= 3 ErrMin= 5.69D-04
 ErrMax= 5.69D-04  0.00D+00 EMaxC= 1.00D-01 BMatC= 1.10D-05 BMatP= 2.34D-04
 IDIUse=1 WtCom= 1.00D+00 WtEn= 0.00D+00
 Large coefficients: NSaved=  3 BigCof=   50.15 CofMax=   10.00 Det=-4.58D-11
 Inversion failed.  Reducing to  2 matrices.
 Coeff-Com:  0.177D+00 0.823D+00
 Coeff:      0.177D+00 0.823D+00
 Gap=     0.022 Goal=   None    Shift=    0.000
 RMSDP=8.71D-05 MaxDP=2.85D-03 DE=-5.22D-04 OVMax= 6.98D-03

 Cycle 109  Pass 1  IDiag  1:
 RMSU=  3.30D-05    CP:  1.00D+00  2.95D+00  3.00D+00 -8.64D-03 -3.00D+00
                    CP: -3.00D+00  3.00D+00  3.46D-01
 E= -617.820375314096     Delta-E=       -0.000025389680 Rises=F Damp=F
 DIIS: error= 7.30D-05 at cycle 109 NSaved=   3.
 NSaved= 3 IEnMin= 3 EnMin= -617.820375314096     IErMin= 3 ErrMin= 7.30D-05
 ErrMax= 7.30D-05  0.00D+00 EMaxC= 1.00D-01 BMatC= 4.48D-07 BMatP= 1.10D-05
 IDIUse=1 WtCom= 1.00D+00 WtEn= 0.00D+00
 Coeff-Com:  0.113D+00 0.503D+00 0.384D+00
 Coeff:      0.113D+00 0.503D+00 0.384D+00
 Gap=     0.022 Goal=   None    Shift=    0.000
 RMSDP=2.19D-05 MaxDP=5.81D-04 DE=-2.54D-05 OVMax= 1.79D-03

 Cycle 110  Pass 1  IDiag  1:
 RMSU=  1.93D-05    CP:  1.00D+00  2.90D+00  3.00D+00 -1.90D-01 -3.00D+00
                    CP: -3.00D+00 -3.00D+00  3.69D-01  7.51D-01
 E= -617.820374680242     Delta-E=        0.000000633854 Rises=F Damp=F
 DIIS: error= 1.23D-04 at cycle 110 NSaved=   4.
 NSaved= 4 IEnMin= 3 EnMin= -617.820375314096     IErMin= 3 ErrMin= 7.30D-05
 ErrMax= 1.23D-04  0.00D+00 EMaxC= 1.00D-01 BMatC= 6.03D-07 BMatP= 4.48D-07
 IDIUse=1 WtCom= 1.00D+00 WtEn= 0.00D+00
 Coeff-Com:  0.156D-01-0.609D-01 0.461D+00 0.584D+00
 Coeff:      0.156D-01-0.609D-01 0.461D+00 0.584D+00
 Gap=     0.022 Goal=   None    Shift=    0.000
 RMSDP=2.46D-05 MaxDP=7.15D-04 DE= 6.34D-07 OVMax= 1.74D-03

 Cycle 111  Pass 1  IDiag  1:
 RMSU=  3.84D-06    CP:  1.00D+00  2.65D+00  3.00D+00 -1.80D-01 -3.00D+00
                    CP: -3.00D+00  3.00D+00  2.66D-01  6.66D-01  4.04D-01
 E= -617.820376054446     Delta-E=       -0.000001374203 Rises=F Damp=F
 DIIS: error= 6.12D-05 at cycle 111 NSaved=   5.
 NSaved= 5 IEnMin= 5 EnMin= -617.820376054446     IErMin= 5 ErrMin= 6.12D-05
 ErrMax= 6.12D-05  0.00D+00 EMaxC= 1.00D-01 BMatC= 1.40D-07 BMatP= 4.48D-07
 IDIUse=1 WtCom= 1.00D+00 WtEn= 0.00D+00
 Coeff-Com:  0.260D-02-0.415D-02 0.221D+00 0.307D+00 0.474D+00
 Coeff:      0.260D-02-0.415D-02 0.221D+00 0.307D+00 0.474D+00
 Gap=     0.022 Goal=   None    Shift=    0.000
 RMSDP=4.11D-06 MaxDP=1.51D-04 DE=-1.37D-06 OVMax= 4.09D-04

 Cycle 112  Pass 1  IDiag  1:
 RMSU=  6.44D-07    CP:  1.00D+00  2.63D+00  3.00D+00 -2.60D-01 -3.00D+00
                    CP: -3.00D+00  3.00D+00  2.89D-01  7.04D-01  4.74D-01
                    CP:  8.10D-01
 E= -617.820376394504     Delta-E=       -0.000000340058 Rises=F Damp=F
 DIIS: error= 1.56D-05 at cycle 112 NSaved=   6.
 NSaved= 6 IEnMin= 6 EnMin= -617.820376394504     IErMin= 6 ErrMin= 1.56D-05
 ErrMax= 1.56D-05  0.00D+00 EMaxC= 1.00D-01 BMatC= 1.08D-08 BMatP= 1.40D-07
 IDIUse=1 WtCom= 1.00D+00 WtEn= 0.00D+00
 Coeff-Com:  0.929D-03-0.277D-04 0.149D+00 0.208D+00 0.297D+00 0.345D+00
 Coeff:      0.929D-03-0.277D-04 0.149D+00 0.208D+00 0.297D+00 0.345D+00
 Gap=     0.022 Goal=   None    Shift=    0.000
 RMSDP=3.00D-06 MaxDP=7.92D-05 DE=-3.40D-07 OVMax= 2.91D-04

 Cycle 113  Pass 1  IDiag  1:
 RMSU=  2.66D-07    CP:  1.00D+00  2.58D+00  3.00D+00 -3.01D-01 -3.00D+00
                    CP: -3.00D+00  3.00D+00  2.89D-01  7.05D-01  4.73D-01
                    CP:  7.82D-01  1.04D+00
 E= -617.820376442790     Delta-E=       -0.000000048286 Rises=F Damp=F
 DIIS: error= 1.31D-05 at cycle 113 NSaved=   7.
 NSaved= 7 IEnMin= 7 EnMin= -617.820376442790     IErMin= 7 ErrMin= 1.31D-05
 ErrMax= 1.31D-05  0.00D+00 EMaxC= 1.00D-01 BMatC= 5.44D-09 BMatP= 1.08D-08
 IDIUse=1 WtCom= 1.00D+00 WtEn= 0.00D+00
 Coeff-Com:  0.470D-03-0.161D-01 0.530D-01 0.720D-01-0.950D-01-0.628D+00
 Coeff-Com:  0.161D+01
 Coeff:      0.470D-03-0.161D-01 0.530D-01 0.720D-01-0.950D-01-0.628D+00
 Coeff:      0.161D+01
 Gap=     0.022 Goal=   None    Shift=    0.000
 RMSDP=1.14D-05 MaxDP=3.34D-04 DE=-4.83D-08 OVMax= 1.12D-03

 Cycle 114  Pass 1  IDiag  1:
 RMSU=  4.90D-07    CP:  1.00D+00  2.43D+00  3.00D+00 -4.24D-01 -3.00D+00
                    CP: -3.00D+00  3.00D+00  2.79D-01  6.86D-01  4.48D-01
                    CP:  8.72D-01  1.16D+00  1.95D+00
 E= -617.820376574255     Delta-E=       -0.000000131465 Rises=F Damp=F
 DIIS: error= 1.28D-05 at cycle 114 NSaved=   8.
 NSaved= 8 IEnMin= 8 EnMin= -617.820376574255     IErMin= 8 ErrMin= 1.28D-05
 ErrMax= 1.28D-05  0.00D+00 EMaxC= 1.00D-01 BMatC= 5.73D-09 BMatP= 5.44D-09
 IDIUse=1 WtCom= 1.00D+00 WtEn= 0.00D+00
 Large coefficients: NSaved=  8 BigCof=   12.26 CofMax=   10.00 Det=-1.24D-11
 Inversion failed.  Reducing to  7 matrices.
 Large coefficients: NSaved=  7 BigCof=   12.13 CofMax=   10.00 Det=-1.27D-11
 Inversion failed.  Reducing to  6 matrices.
 Coeff-Com:  0.433D-01 0.129D+00 0.196D+00-0.103D+01-0.362D+01 0.528D+01
 Coeff:      0.433D-01 0.129D+00 0.196D+00-0.103D+01-0.362D+01 0.528D+01
 Gap=     0.022 Goal=   None    Shift=    0.000
 RMSDP=5.60D-05 MaxDP=1.63D-03 DE=-1.31D-07 OVMax= 5.53D-03

 Cycle 115  Pass 1  IDiag  1:
 RMSU=  1.73D-06    CP:  1.00D+00  1.64D+00  3.00D+00 -1.01D+00 -3.00D+00
                    CP: -3.00D+00  3.00D+00  2.34D-01  5.89D-01  3.94D-01
                    CP:  1.13D+00  1.78D+00  3.00D+00  3.00D+00
 E= -617.820377178637     Delta-E=       -0.000000604382 Rises=F Damp=F
 DIIS: error= 1.11D-05 at cycle 115 NSaved=   7.
 NSaved= 7 IEnMin= 7 EnMin= -617.820377178637     IErMin= 7 ErrMin= 1.11D-05
 ErrMax= 1.11D-05  0.00D+00 EMaxC= 1.00D-01 BMatC= 2.97D-09 BMatP= 5.44D-09
 IDIUse=1 WtCom= 1.00D+00 WtEn= 0.00D+00
 Large coefficients: NSaved=  7 BigCof=   11.37 CofMax=   10.00 Det=-8.63D-12
 Inversion failed.  Reducing to  6 matrices.
 Large coefficients: NSaved=  6 BigCof=   10.28 CofMax=   10.00 Det=-1.24D-11
 Inversion failed.  Reducing to  5 matrices.
 Coeff-Com:  0.194D+00-0.173D+01-0.945D+01 0.970D+01 0.228D+01
 Coeff:      0.194D+00-0.173D+01-0.945D+01 0.970D+01 0.228D+01
 Gap=     0.022 Goal=   None    Shift=    0.000
 RMSDP=2.05D-04 MaxDP=6.13D-03 DE=-6.04D-07 OVMax= 2.02D-02

 Cycle 116  Pass 1  IDiag  1:
 RMSU=  7.47D-06    CP:  1.00D+00 -1.22D+00  3.00D+00 -3.00D+00 -3.00D+00
                    CP: -3.00D+00  3.00D+00  5.57D-02  2.40D-01  5.30D-02
                    CP:  2.34D+00  9.59D-01  3.00D+00  3.00D+00  3.00D+00
 E= -617.820378181477     Delta-E=       -0.000001002841 Rises=F Damp=F
 DIIS: error= 7.87D-05 at cycle 116 NSaved=   6.
 NSaved= 6 IEnMin= 6 EnMin= -617.820378181477     IErMin= 5 ErrMin= 1.11D-05
 ErrMax= 7.87D-05  0.00D+00 EMaxC= 1.00D-01 BMatC= 1.83D-07 BMatP= 2.97D-09
 IDIUse=1 WtCom= 1.00D+00 WtEn= 0.00D+00
 Coeff-Com:  0.208D+00-0.171D+01-0.961D+01 0.980D+01 0.232D+01-0.109D-01
 Coeff:      0.208D+00-0.171D+01-0.961D+01 0.980D+01 0.232D+01-0.109D-01
 Gap=     0.022 Goal=   None    Shift=    0.000
 RMSDP=7.24D-07 MaxDP=2.37D-05 DE=-1.00D-06 OVMax= 6.89D-05

 Cycle 117  Pass 1  IDiag  1:
 RMSU=  1.48D-07    CP:  1.00D+00 -1.23D+00  3.00D+00 -3.00D+00 -3.00D+00
                    CP: -3.00D+00  3.00D+00  5.46D-02  2.38D-01  5.13D-02
                    CP:  2.34D+00  9.46D-01  3.00D+00  3.00D+00  3.00D+00
                    CP:  1.01D+00
 E= -617.820378168243     Delta-E=        0.000000013234 Rises=F Damp=F
 DIIS: error= 8.01D-05 at cycle 117 NSaved=   7.
 NSaved= 7 IEnMin= 6 EnMin= -617.820378181477     IErMin= 5 ErrMin= 1.11D-05
 ErrMax= 8.01D-05  0.00D+00 EMaxC= 1.00D-01 BMatC= 1.90D-07 BMatP= 2.97D-09
 IDIUse=1 WtCom= 1.00D+00 WtEn= 0.00D+00
 Large coefficients: NSaved=  7 BigCof=   11.05 CofMax=   10.00 Det=-2.63D-14
 Inversion failed.  Reducing to  6 matrices.
 Large coefficients: NSaved=  6 BigCof=   20.12 CofMax=   10.00 Det=-6.63D-14
 Inversion failed.  Reducing to  5 matrices.
 Large coefficients: NSaved=  5 BigCof=   46.59 CofMax=   10.00 Det=-1.93D-13
 Inversion failed.  Reducing to  4 matrices.
 Large coefficients: NSaved=  4 BigCof=   56.73 CofMax=   10.00 Det=-4.82D-13
 Inversion failed.  Reducing to  3 matrices.
 Large coefficients: NSaved=  3 BigCof=   48.26 CofMax=   10.00 Det=-7.23D-13
 Inversion failed.  Reducing to  2 matrices.
 Large coefficients: NSaved=  2 BigCof=   54.97 CofMax=   10.00 Det=-6.24D-11
 Coeff-Com:  0.550D+02-0.540D+02
 Coeff:      0.550D+02-0.540D+02
 Gap=     0.022 Goal=   None    Shift=    0.000
 RMSDP=3.59D-05 MaxDP=1.22D-03 DE= 1.32D-08 OVMax= 3.23D-03

 Cycle 118  Pass 1  IDiag  1:
 RMSU=  1.01D-06    CP:  1.00D+00 -7.58D-01  3.00D+00 -2.58D+00 -3.00D+00
                    CP: -3.00D+00  3.00D+00  1.34D-01  3.98D-01  2.27D-01
                    CP:  2.12D+00  1.91D+00  3.00D+00  3.00D+00  3.00D+00
                    CP:  7.54D-01 -2.19D+00
 E= -617.820378447154     Delta-E=       -0.000000278911 Rises=F Damp=F
 DIIS: error= 1.72D-05 at cycle 118 NSaved=   3.
 NSaved= 3 IEnMin= 3 EnMin= -617.820378447154     IErMin= 3 ErrMin= 1.72D-05
 ErrMax= 1.72D-05  0.00D+00 EMaxC= 1.00D-01 BMatC= 1.26D-08 BMatP= 1.83D-07
 IDIUse=1 WtCom= 1.00D+00 WtEn= 0.00D+00
 Large coefficients: NSaved=  3 BigCof=   40.45 CofMax=   10.00 Det=-1.36D-12
 Inversion failed.  Reducing to  2 matrices.
 Coeff-Com:  0.184D+00 0.816D+00
 Coeff:      0.184D+00 0.816D+00
 Gap=     0.022 Goal=   None    Shift=    0.000
 RMSDP=1.23D-05 MaxDP=3.25D-04 DE=-2.79D-07 OVMax= 1.17D-03

 Cycle 119  Pass 1  IDiag  1:
 RMSU=  5.08D-07    CP:  1.00D+00 -9.22D-01  3.00D+00 -2.56D+00 -3.00D+00
                    CP: -3.00D+00  3.00D+00  1.21D-01  4.32D-01  1.02D-02
                    CP:  2.27D+00  1.78D+00  3.00D+00  3.00D+00  3.00D+00
                    CP:  8.01D-01 -2.38D+00  1.03D+00
 E= -617.820378465946     Delta-E=       -0.000000018792 Rises=F Damp=F
 DIIS: error= 2.67D-05 at cycle 119 NSaved=   3.
 NSaved= 3 IEnMin= 3 EnMin= -617.820378465946     IErMin= 2 ErrMin= 1.72D-05
 ErrMax= 2.67D-05  0.00D+00 EMaxC= 1.00D-01 BMatC= 3.51D-08 BMatP= 1.26D-08
 IDIUse=1 WtCom= 1.00D+00 WtEn= 0.00D+00
 Coeff-Com:  0.125D+00 0.664D+00 0.211D+00
 Coeff:      0.125D+00 0.664D+00 0.211D+00
 Gap=     0.022 Goal=   None    Shift=    0.000
 RMSDP=3.39D-06 MaxDP=9.35D-05 DE=-1.88D-08 OVMax= 2.84D-04

 Cycle 120  Pass 1  IDiag  1:
 RMSU=  1.35D-07    CP:  1.00D+00 -9.24D-01  3.00D+00 -2.55D+00 -3.00D+00
                    CP: -3.00D+00  3.00D+00  1.27D-01  3.99D-01  1.71D-01
                    CP:  2.24D+00  1.78D+00  3.00D+00  3.00D+00  3.00D+00
                    CP:  8.11D-01 -2.36D+00  1.01D+00  7.38D-01
 E= -617.820378541522     Delta-E=       -0.000000075576 Rises=F Damp=F
 DIIS: error= 5.88D-06 at cycle 120 NSaved=   4.
 NSaved= 4 IEnMin= 4 EnMin= -617.820378541522     IErMin= 4 ErrMin= 5.88D-06
 ErrMax= 5.88D-06  0.00D+00 EMaxC= 1.00D-01 BMatC= 1.04D-09 BMatP= 1.26D-08
 IDIUse=1 WtCom= 1.00D+00 WtEn= 0.00D+00
 Coeff-Com:  0.678D-01 0.230D+00 0.686D-01 0.633D+00
 Coeff:      0.678D-01 0.230D+00 0.686D-01 0.633D+00
 Gap=     0.022 Goal=   None    Shift=    0.000
 RMSDP=3.86D-06 MaxDP=1.17D-04 DE=-7.56D-08 OVMax= 4.06D-04

 Cycle 121  Pass 1  IDiag  1:
 Restarting incremental Fock formation.
 E= -617.820378564775     Delta-E=       -0.000000023254 Rises=F Damp=F
 DIIS: error= 5.83D-06 at cycle 121 NSaved=   5.
 NSaved= 5 IEnMin= 5 EnMin= -617.820378564775     IErMin= 5 ErrMin= 5.83D-06
 ErrMax= 5.83D-06  0.00D+00 EMaxC= 1.00D-01 BMatC= 7.46D-10 BMatP= 1.04D-09
 IDIUse=1 WtCom= 1.00D+00 WtEn= 0.00D+00
 Coeff-Com: -0.713D-01-0.553D+00-0.198D+00 0.457D-01 0.178D+01
 Coeff:     -0.713D-01-0.553D+00-0.198D+00 0.457D-01 0.178D+01
 Gap=     0.022 Goal=   None    Shift=    0.000
 RMSDP=1.31D-05 MaxDP=4.01D-04 DE=-2.33D-08 OVMax= 1.37D-03

 Cycle 122  Pass 1  IDiag  1:
 RMSU=  1.31D-05    CP:  1.00D+00
 E= -617.820378639562     Delta-E=       -0.000000074786 Rises=F Damp=F
 DIIS: error= 5.60D-06 at cycle 122 NSaved=   6.
 NSaved= 6 IEnMin= 6 EnMin= -617.820378639562     IErMin= 6 ErrMin= 5.60D-06
 ErrMax= 5.60D-06  0.00D+00 EMaxC= 1.00D-01 BMatC= 6.91D-10 BMatP= 7.46D-10
 IDIUse=1 WtCom= 1.00D+00 WtEn= 0.00D+00
 Coeff-Com: -0.156D+00 0.924D+00 0.337D+00-0.206D+01-0.561D+01 0.756D+01
 Coeff:     -0.156D+00 0.924D+00 0.337D+00-0.206D+01-0.561D+01 0.756D+01
 Gap=     0.022 Goal=   None    Shift=    0.000
 RMSDP=7.98D-05 MaxDP=2.50D-03 DE=-7.48D-08 OVMax= 8.32D-03

 Cycle 123  Pass 1  IDiag  1:
 RMSU=  5.38D-05    CP:  1.00D+00  3.00D+00
 E= -617.820379005949     Delta-E=       -0.000000366387 Rises=F Damp=F
 DIIS: error= 7.65D-06 at cycle 123 NSaved=   7.
 NSaved= 7 IEnMin= 7 EnMin= -617.820379005949     IErMin= 6 ErrMin= 5.60D-06
 ErrMax= 7.65D-06  0.00D+00 EMaxC= 1.00D-01 BMatC= 2.65D-09 BMatP= 6.91D-10
 IDIUse=1 WtCom= 1.00D+00 WtEn= 0.00D+00
 Coeff-Com: -0.206D+00 0.140D+01 0.466D+00-0.226D+01-0.729D+01 0.796D+01
 Coeff-Com:  0.926D+00
 Coeff:     -0.206D+00 0.140D+01 0.466D+00-0.226D+01-0.729D+01 0.796D+01
 Coeff:      0.926D+00
 Gap=     0.022 Goal=   None    Shift=    0.000
 RMSDP=8.19D-05 MaxDP=2.59D-03 DE=-3.66D-07 OVMax= 8.54D-03

 Cycle 124  Pass 1  IDiag  1:
 RMSU=  2.00D-06    CP:  1.00D+00  3.00D+00  2.52D+00
 E= -617.820379194882     Delta-E=       -0.000000188933 Rises=F Damp=F
 DIIS: error= 2.32D-05 at cycle 124 NSaved=   8.
 NSaved= 8 IEnMin= 8 EnMin= -617.820379194882     IErMin= 6 ErrMin= 5.60D-06
 ErrMax= 2.32D-05  0.00D+00 EMaxC= 1.00D-01 BMatC= 1.67D-08 BMatP= 6.91D-10
 IDIUse=1 WtCom= 1.00D+00 WtEn= 0.00D+00
 Coeff-Com: -0.233D+00 0.968D+00 0.305D+00-0.162D+01-0.497D+01 0.558D+01
 Coeff-Com:  0.670D+00 0.292D+00
 Coeff:     -0.233D+00 0.968D+00 0.305D+00-0.162D+01-0.497D+01 0.558D+01
 Coeff:      0.670D+00 0.292D+00
 Gap=     0.022 Goal=   None    Shift=    0.000
 RMSDP=1.33D-06 MaxDP=3.06D-05 DE=-1.89D-07 OVMax= 1.09D-04

 Cycle 125  Pass 1  IDiag  1:
 RMSU=  7.96D-07    CP:  1.00D+00  3.00D+00  2.54D+00  5.86D-01
 E= -617.820379215331     Delta-E=       -0.000000020449 Rises=F Damp=F
 DIIS: error= 1.57D-05 at cycle 125 NSaved=   9.
 NSaved= 9 IEnMin= 9 EnMin= -617.820379215331     IErMin= 6 ErrMin= 5.60D-06
 ErrMax= 1.57D-05  0.00D+00 EMaxC= 1.00D-01 BMatC= 7.99D-09 BMatP= 6.91D-10
 IDIUse=1 WtCom= 1.00D+00 WtEn= 0.00D+00
 Coeff-Com: -0.846D-01-0.391D+00-0.142D+00 0.176D+00 0.152D+01-0.100D+01
 Coeff-Com: -0.340D+00-0.170D+01 0.296D+01
 Coeff:     -0.846D-01-0.391D+00-0.142D+00 0.176D+00 0.152D+01-0.100D+01
 Coeff:     -0.340D+00-0.170D+01 0.296D+01
 Gap=     0.022 Goal=   None    Shift=    0.000
 RMSDP=9.45D-06 MaxDP=3.16D-04 DE=-2.04D-08 OVMax= 9.44D-04

 Cycle 126  Pass 1  IDiag  1:
 RMSU=  8.11D-07    CP:  1.00D+00  3.00D+00  2.71D+00  1.34D-01  2.90D+00
 E= -617.820379246486     Delta-E=       -0.000000031155 Rises=F Damp=F
 DIIS: error= 3.91D-06 at cycle 126 NSaved=  10.
 NSaved=10 IEnMin=10 EnMin= -617.820379246486     IErMin=10 ErrMin= 3.91D-06
 ErrMax= 3.91D-06  0.00D+00 EMaxC= 1.00D-01 BMatC= 4.12D-10 BMatP= 6.91D-10
 IDIUse=1 WtCom= 1.00D+00 WtEn= 0.00D+00
 Coeff-Com: -0.998D-02-0.122D+00-0.436D-01-0.606D-01 0.196D+00-0.794D-02
 Coeff-Com: -0.603D-01-0.779D+00 0.123D+01 0.659D+00
 Coeff:     -0.998D-02-0.122D+00-0.436D-01-0.606D-01 0.196D+00-0.794D-02
 Coeff:     -0.603D-01-0.779D+00 0.123D+01 0.659D+00
 Gap=     0.022 Goal=   None    Shift=    0.000
 RMSDP=1.40D-05 MaxDP=4.32D-04 DE=-3.12D-08 OVMax= 1.48D-03

 Cycle 127  Pass 1  IDiag  1:
 RMSU=  2.85D-07    CP:  1.00D+00  3.00D+00  2.97D+00  1.04D+00  1.76D+00
                    CP:  1.79D+00
 E= -617.820379268626     Delta-E=       -0.000000022140 Rises=F Damp=F
 DIIS: error= 3.10D-06 at cycle 127 NSaved=  11.
 NSaved=11 IEnMin=11 EnMin= -617.820379268626     IErMin=11 ErrMin= 3.10D-06
 ErrMax= 3.10D-06  0.00D+00 EMaxC= 1.00D-01 BMatC= 5.50D-10 BMatP= 4.12D-10
 IDIUse=1 WtCom= 1.00D+00 WtEn= 0.00D+00
 Coeff-Com: -0.737D-01 0.963D+00 0.308D+00-0.984D+00-0.414D+01 0.399D+01
 Coeff-Com:  0.923D+00 0.435D+01-0.763D+01-0.925D+00 0.423D+01
 Coeff:     -0.737D-01 0.963D+00 0.308D+00-0.984D+00-0.414D+01 0.399D+01
 Coeff:      0.923D+00 0.435D+01-0.763D+01-0.925D+00 0.423D+01
 Gap=     0.022 Goal=   None    Shift=    0.000
 RMSDP=1.97D-05 MaxDP=5.50D-04 DE=-2.21D-08 OVMax= 2.02D-03

 Cycle 128  Pass 1  IDiag  1:
 RMSU=  1.63D-05    CP:  1.00D+00  3.00D+00  3.00D+00  3.00D+00 -2.93D+00
                    CP:  3.00D+00  3.00D+00
 E= -617.820379303426     Delta-E=       -0.000000034800 Rises=F Damp=F
 DIIS: error= 3.99D-06 at cycle 128 NSaved=  12.
 NSaved=12 IEnMin=12 EnMin= -617.820379303426     IErMin=11 ErrMin= 3.10D-06
 ErrMax= 3.99D-06  0.00D+00 EMaxC= 1.00D-01 BMatC= 7.00D-10 BMatP= 4.12D-10
 IDIUse=1 WtCom= 1.00D+00 WtEn= 0.00D+00
 Large coefficients: NSaved= 12 BigCof=   11.10 CofMax=   10.00 Det=-2.76D-13
 Inversion failed.  Reducing to 11 matrices.
 Coeff-Com: -0.269D+00-0.119D+00 0.878D+00 0.242D+01-0.251D+01 0.114D+00
 Coeff-Com:  0.529D+01-0.976D+01-0.266D+01 0.510D+01 0.253D+01
 Coeff:     -0.269D+00-0.119D+00 0.878D+00 0.242D+01-0.251D+01 0.114D+00
 Coeff:      0.529D+01-0.976D+01-0.266D+01 0.510D+01 0.253D+01
 Gap=     0.022 Goal=   None    Shift=    0.000
 RMSDP=4.94D-05 MaxDP=1.37D-03 DE=-3.48D-08 OVMax= 4.97D-03

 >>>>>>>>>> Convergence criterion not met.
 SCF Done:  E(RB3LYP) =  -617.820379303     A.U. after  129 cycles
            NFock=128  Conv=0.49D-04     -V/T= 2.0053
 KE= 6.145712053178D+02 PE=-1.823533159867D+03 EE= 4.080343125757D+02
 Convergence failure -- run terminated.
 Error termination via Lnk1e in /n/sw/g16_nehalem/g16/l502.exe at Sun Jan  3 18:18:06 2021.
 Job cpu time:       0 days  0 hours 17 minutes 34.5 seconds.
 Elapsed time:       0 days  0 hours  1 minutes 11.3 seconds.
 File lengths (MBytes):  RWF=     10 Int=      0 D2E=      0 Chk=      1 Scr=      1
