      -----------------------------------------------------------      
     |                   =====================                   |     
     |                           x T B                           |     
     |                   =====================                   |     
     |                         S. Grimme                         |     
     |          Mulliken Center for Theoretical Chemistry        |     
     |                    University of Bonn                     |     
      -----------------------------------------------------------      

   * xtb version 6.3.1 (ef1cc13) compiled by 'conda@3e86a91638a5' on 2020-06-10

   xtb is free software: you can redistribute it and/or modify it under
   the terms of the GNU Lesser General Public License as published by
   the Free Software Foundation, either version 3 of the License, or
   (at your option) any later version.
   
   xtb is distributed in the hope that it will be useful,
   but WITHOUT ANY WARRANTY; without even the implied warranty of
   MERCHANTABILITY or FITNESS FOR A PARTICULAR PURPOSE.  See the
   GNU Lesser General Public License for more details.
   
   Cite this work as:
   * S. Grimme, C. Bannwarth, P. Shushkov, J. Chem. Theory Comput., 2017,
     13, 1989-2009. DOI: 10.1021/acs.jctc.7b00118
   * C. Bannwarth, S. Ehlert and S. Grimme., J. Chem. Theory Comput., 2019,
     15, 1652-1671. DOI: 10.1021/acs.jctc.8b01176
   * P. Pracht, E. Caldeweyher, S. Ehlert, S. Grimme, ChemRxiv, 2019, preprint.
     DOI: 10.26434/chemrxiv.8326202.v1
   
   for GFN-FF:
   * S. Spicher and S. Grimme, Angew. Chem. Int. Ed., 2020,
     DOI: 10.1002/anie.202004239
   
   for DFT-D4:
   * E. Caldeweyher, C. Bannwarth and S. Grimme, J. Chem. Phys., 2017,
     147, 034112. DOI: 10.1063/1.4993215
   * E. Caldeweyher, S. Ehlert, A. Hansen, H. Neugebauer, S. Spicher,
     C. Bannwarth and S. Grimme, J. Chem. Phys., 2019, 150, 154122.
     DOI: 10.1063/1.5090222
   
   for sTDA-xTB:
   * S. Grimme and C. Bannwarth, J. Chem. Phys., 2016, 145, 054103.
     DOI: 10.1063/1.4959605
   
   in the mass-spec context:
   * V. Asgeirsson, C. Bauer and S. Grimme, Chem. Sci., 2017, 8, 4879.
     DOI: 10.1039/c7sc00601b
   * J. Koopman and S. Grimme, ACS Omega 2019, 4, 12, 15120-15133.
     DOI: 10.1021/acsomega.9b02011
   
   for metadynamics refer to:
   * S. Grimme, J. Chem. Theory Comput., 2019, 155, 2847-2862
     DOI: 10.1021/acs.jctc.9b00143
   
   with help from (in alphabetical order)
   C. Bannwarth, F. Bohle, G. Brandenburg, E. Caldeweyher, M. Checinski,
   S. Dohm, S. Ehlert, S. Ehrlich, F. März, H. Neugebauer, J. Pisarek,
   P. Pracht, P. Shushkov, and S. Spicher.
   
 * started run on 2021/04/07 at 11:54:03.113     

           -------------------------------------------------
          |                Calculation Setup                |
           -------------------------------------------------

          program call               : xtb --gfn 0 --chrg 0 --uhf 0 --parallel 8 --grad xtb-in.xyz
          hostname                   : holy2a06305
          coordinate file            : xtb-in.xyz
          omp threads                :                     8
          number of atoms            :                   914
          number of electrons        :                  2032
          charge                     :                     0
          spin                       :                   0.0
          first test random number   :      0.49897787978750

   ID    Z sym.   atoms
    1   17 Cl     1
    2    6 C      2, 3, 7, 11, 15, 20, 24, 29, 33, 38, 42, 47, 51, 56, 60,
                  65, 69, 74, 78, 83, 87, 92, 96, 101, 105, 110, 114, 119,
                  123, 128, 132, 137, 141, 146, 150, 155, 159, 164, 168, 173,
                  177, 182, 186, 191, 195, 200, 204, 209, 213, 218, 222, 227,
                  231, 236, 240, 245, 249, 254, 258, 263, 267, 272, 276, 281,
                  285, 290, 294, 299, 303, 308, 312, 317, 321, 326, 330, 335,
                  339, 344, 348, 353, 357, 362, 366, 371, 375, 380, 384, 389,
                  393, 398, 402, 407, 411, 416, 420, 425, 429, 434, 438, 443,
                  447, 452, 456, 461, 465, 470, 474, 479, 483, 488, 492, 497,
                  501, 506, 510, 515, 519, 524, 528, 533, 537, 542, 546, 551,
                  555, 560, 564, 569, 573, 578, 582, 587, 591, 596, 600, 605,
                  609, 614, 618, 623, 627, 632, 636, 641, 645, 650, 654, 659,
                  663, 668, 672, 677, 681, 686, 690, 695, 699, 704, 708, 713,
                  717, 722, 726, 731, 735, 740, 744, 749, 753, 758, 762, 767,
                  771, 776, 780, 785, 789, 794, 798, 803, 807, 812, 816, 821,
                  825, 830, 834, 839, 843, 848, 852, 857, 861, 866, 870, 875,
                  879, 884, 888, 893, 897, 902, 906, 911
    3    1 H      4-6, 8-10, 12-14, 16, 17, 19, 21-23, 25, 26, 28, 30-32, 34,
                  35, 37, 39-41, 43, 44, 46, 48-50, 52, 53, 55, 57-59, 61,
                  62, 64, 66-68, 70, 71, 73, 75-77, 79, 80, 82, 84-86, 88,
                  89, 91, 93-95, 97, 98, 100, 102-104, 106, 107, 109,
                  111-113, 115, 116, 118, 120-122, 124, 125, 127, 129-131,
                  133, 134, 136, 138-140, 142, 143, 145, 147-149, 151, 152,
                  154, 156-158, 160, 161, 163, 165-167, 169, 170, 172,
                  174-176, 178, 179, 181, 183-185, 187, 188, 190, 192-194,
                  196, 197, 199, 201-203, 205, 206, 208, 210-212, 214, 215,
                  217, 219-221, 223, 224, 226, 228-230, 232, 233, 235,
                  237-239, 241, 242, 244, 246-248, 250, 251, 253, 255-257,
                  259, 260, 262, 264-266, 268, 269, 271, 273-275, 277, 278,
                  280, 282-284, 286, 287, 289, 291-293, 295, 296, 298,
                  300-302, 304, 305, 307, 309-311, 313, 314, 316, 318-320,
                  322, 323, 325, 327-329, 331, 332, 334, 336-338, 340, 341,
                  343, 345-347, 349, 350, 352, 354-356, 358, 359, 361,
                  363-365, 367, 368, 370, 372-374, 376, 377, 379, 381-383,
                  385, 386, 388, 390-392, 394, 395, 397, 399-401, 403, 404,
                  406, 408-410, 412, 413, 415, 417-419, 421, 422, 424,
                  426-428, 430, 431, 433, 435-437, 439, 440, 442, 444-446,
                  448, 449, 451, 453-455, 457, 458, 460, 462-464, 466, 467,
                  469, 471-473, 475, 476, 478, 480-482, 484, 485, 487,
                  489-491, 493, 494, 496, 498-500, 502, 503, 505, 507-509,
                  511, 512, 514, 516-518, 520, 521, 523, 525-527, 529, 530,
                  532, 534-536, 538, 539, 541, 543-545, 547, 548, 550,
                  552-554, 556, 557, 559, 561-563, 565, 566, 568, 570-572,
                  574, 575, 577, 579-581, 583, 584, 586, 588-590, 592, 593,
                  595, 597-599, 601, 602, 604, 606-608, 610, 611, 613,
                  615-617, 619, 620, 622, 624-626, 628, 629, 631, 633-635,
                  637, 638, 640, 642-644, 646, 647, 649, 651-653, 655, 656,
                  658, 660-662, 664, 665, 667, 669-671, 673, 674, 676,
                  678-680, 682, 683, 685, 687-689, 691, 692, 694, 696-698,
                  700, 701, 703, 705-707, 709, 710, 712, 714-716, 718, 719,
                  721, 723-725, 727, 728, 730, 732-734, 736, 737, 739,
                  741-743, 745, 746, 748, 750-752, 754, 755, 757, 759-761,
                  763, 764, 766, 768-770, 772, 773, 775, 777-779, 781, 782,
                  784, 786-788, 790, 791, 793, 795-797, 799, 800, 802,
                  804-806, 808, 809, 811, 813-815, 817, 818, 820, 822-824,
                  826, 827, 829, 831-833, 835, 836, 838, 840-842, 844, 845,
                  847, 849-851, 853, 854, 856, 858-860, 862, 863, 865,
                  867-869, 871, 872, 874, 876-878, 880, 881, 883, 885-887,
                  889, 890, 892, 894-896, 898, 899, 901, 903-905, 907, 908,
                  910, 912-914
    4    8 O      18, 27, 36, 45, 54, 63, 72, 81, 90, 99, 108, 117, 126, 135,
                  144, 153, 162, 171, 180, 189, 198, 207, 216, 225, 234, 243,
                  252, 261, 270, 279, 288, 297, 306, 315, 324, 333, 342, 351,
                  360, 369, 378, 387, 396, 405, 414, 423, 432, 441, 450, 459,
                  468, 477, 486, 495, 504, 513, 522, 531, 540, 549, 558, 567,
                  576, 585, 594, 603, 612, 621, 630, 639, 648, 657, 666, 675,
                  684, 693, 702, 711, 720, 729, 738, 747, 756, 765, 774, 783,
                  792, 801, 810, 819, 828, 837, 846, 855, 864, 873, 882, 891,
                  900, 909

molecular fragmentation (1/2 indicates fragments):
111111111111112222222222222222222222222222222222222222222222222222222222
222222222222222222222222222222222222222222222222222222222222222222222222
222222222222222222222222222222222222222222222222222222222222222222222222
222222222222222222222222222222222222222222222222222222222222222222222222
222222222222222222222222222222222222222222222222222222222222222222222222
222222222222222222222222222222222222222222222222222222222222222222222222
222222222222222222222222222222222222222222222222222222222222222222222222
222222222222222222222222222222222222222222222222222222222222222222222222
222222222222222222222222222222222222222222222222222222222222222222222222
222222222222222222222222222222222222222222222222222222222222222222222222
222222222222222222222222222222222222222222222222222222222222222222222222
222222222222222222222222222222222222222222222222222222222222222222222222
22222222222222222222222222222222222222222222222222
# atoms in fragment 1/2:    14   900
 fragment masses (1/2) :       92.57     4606.85
CMA distance (Bohr)    :   2.981
constraining FC (au)   :  0.0500
########################################################################
[WARNING] Please study the warnings concerning your input carefully
-1- prog_main_parseArguments: Process number higher than OMP_NUM_THREADS, I hope you know what you are doing.
########################################################################

           -------------------------------------------------
          |                 G F N 0 - x T B                 |
           -------------------------------------------------

        Reference                      10.26434/chemrxiv.8326202.v1
      * Hamiltonian:
        H0-scaling (s, p, d)           2.000000    2.486800    2.270000
        zeta-weighting                 1.000000
      * Dispersion:
        s8                             2.850000
        a1                             0.800000
        a2                             4.600000
        s9                             0.000000
      * Repulsion:
        kExp                           1.500000
        rExp                           1.000000
      * Coulomb:
        alpha                          0.000000
        third order                    atomic
        anisotropic                    false
      * Polar bond correction:
        rad-shift                      0.053700
        strength                      -0.012900
        en-exp                         3.484700
        en-scale                       0.509700


          ...................................................
          :                      SETUP                      :
          :.................................................:
          :  # basis functions                2444          :
          :  # atomic orbitals                2443          :
          :  # shells                         1829          :
          :  # electrons                      2032          :
          :  electronic temp.          300.0000000     K    :
          :  accuracy                    1.0000000          :
          :  -> integral cutoff          0.2500000E+02      :
          :  -> integral neglect         0.1000000E-07      :
          ...................................................
  Checking positiv definite overlap ...  done.


         #    Occupation            Energy/Eh            Energy/eV
      -------------------------------------------------------------
         1        2.0000           -0.9707758             -26.4162
       ...           ...                  ...                  ...
      1010        2.0000           -0.4066629             -11.0659
      1011        2.0000           -0.4063556             -11.0575
      1012        2.0000           -0.4059307             -11.0459
      1013        2.0000           -0.4052139             -11.0264
      1014        2.0000           -0.4046421             -11.0109
      1015        2.0000           -0.4042859             -11.0012
      1016        2.0000           -0.4031473             -10.9702 (HOMO)
      1017                         -0.2935741              -7.9886 (LUMO)
      1018                         -0.2253655              -6.1325
      1019                         -0.2199836              -5.9861
      1020                         -0.2156552              -5.8683
      1021                         -0.2143402              -5.8325
       ...                                ...                  ...
      2443                          0.6333480              17.2343
      -------------------------------------------------------------
                  HL-Gap            0.1095732 Eh            2.9816 eV
             Fermi-level            0.0000000 Eh            0.0000 eV

 EHT (total)                   0 d,  0 h,  0 min,  7.358 sec
 EHT setup                      ...        0 min,  0.075 sec (  1.025%)
 Coordination number            ...        0 min,  0.050 sec (  0.686%)
 EEQ model density              ...        0 min,  0.387 sec (  5.257%)
 D4 Dispersion                  ...        0 min,  0.373 sec (  5.075%)
 Integral evaluation            ...        0 min,  0.733 sec (  9.968%)
 Cholesky factorization         ...        0 min,  0.127 sec (  1.727%)
 Zeroth order Hamiltonian       ...        0 min,  4.170 sec ( 56.679%)
 Gradient calculation           ...        0 min,  1.161 sec ( 15.784%)

         :::::::::::::::::::::::::::::::::::::::::::::::::::::
         ::                     SUMMARY                     ::
         :::::::::::::::::::::::::::::::::::::::::::::::::::::
         :: total energy           -1101.233190835399 Eh    ::
         :: gradient norm              0.780454063923 Eh/a0 ::
         :: HOMO-LUMO gap              2.981638678579 eV    ::
         ::.................................................::
         :: H0 energy              -1108.029895143088 Eh    ::
         :: repulsion energy          13.192033104537 Eh    ::
         :: electrostat energy        -4.436875935948 Eh    ::
         :: -> Gsolv                   0.000000000000 Eh    ::
         ::    -> Gsasa                0.000000000000 Eh    ::
         ::    -> Gshift               0.000000000000 Eh    ::
         :: dispersion energy         -0.741802181077 Eh    ::
         :: short-range corr.         -1.216650679823 Eh    ::
         :: add. restraining           0.000000000000 Eh    ::
         :::::::::::::::::::::::::::::::::::::::::::::::::::::

           -------------------------------------------------
          |                Property Printout                |
           -------------------------------------------------

    * Orbital Energies and Occupations

         #    Occupation            Energy/Eh            Energy/eV
      -------------------------------------------------------------
         1        2.0000           -0.9707758             -26.4162
       ...           ...                  ...                  ...
      1004        2.0000           -0.4086506             -11.1199
      1005        2.0000           -0.4083933             -11.1129
      1006        2.0000           -0.4078347             -11.0977
      1007        2.0000           -0.4075905             -11.0911
      1008        2.0000           -0.4075171             -11.0891
      1009        2.0000           -0.4071800             -11.0799
      1010        2.0000           -0.4066629             -11.0659
      1011        2.0000           -0.4063556             -11.0575
      1012        2.0000           -0.4059307             -11.0459
      1013        2.0000           -0.4052139             -11.0264
      1014        2.0000           -0.4046421             -11.0109
      1015        2.0000           -0.4042859             -11.0012
      1016        2.0000           -0.4031473             -10.9702 (HOMO)
      1017                         -0.2935741              -7.9886 (LUMO)
      1018                         -0.2253655              -6.1325
      1019                         -0.2199836              -5.9861
      1020                         -0.2156552              -5.8683
      1021                         -0.2143402              -5.8325
      1022                         -0.2135111              -5.8099
      1023                         -0.2133601              -5.8058
      1024                         -0.2116863              -5.7603
      1025                         -0.2113112              -5.7501
      1026                         -0.2082208              -5.6660
      1027                         -0.2059770              -5.6049
       ...                                ...                  ...
      2443                          0.6333480              17.2343
      -------------------------------------------------------------
                  HL-Gap            0.1095732 Eh            2.9816 eV
             Fermi-level            0.0000000 Eh            0.0000 eV

     #   Z        covCN         q      C6AA      α(0)
     1  17 Cl     0.743    -0.260   105.175    15.675
     2   6 C      3.654     0.287    18.457     6.236
     3   6 C      3.757    -0.433    33.708     8.377
     4   1 H      0.929     0.156     1.350     1.817
     5   1 H      0.917     0.162     1.314     1.793
     6   1 H      0.924     0.153     1.373     1.832
     7   6 C      3.748    -0.435    33.786     8.390
     8   1 H      0.918     0.123     1.590     1.972
     9   1 H      0.923     0.153     1.375     1.834
    10   1 H      0.927     0.168     1.275     1.766
    11   6 C      3.762    -0.465    34.702     8.498
    12   1 H      0.928     0.131     1.528     1.933
    13   1 H      0.926     0.200     1.098     1.639
    14   1 H      0.925     0.162     1.312     1.791
    15   6 C      3.666     0.221    19.411     6.389
    16   1 H      0.917     0.061     2.187     2.313
    17   1 H      0.924     0.082     1.962     2.190
    18   8 O      1.655    -0.749    28.796     7.259
    19   1 H      0.806     0.416     0.456     1.060
    20   6 C      3.758    -0.468    34.830     8.515
    21   1 H      0.928     0.145     1.429     1.869
    22   1 H      0.925     0.168     1.274     1.765
    23   1 H      0.927     0.221     1.000     1.563
    24   6 C      3.670     0.161    20.374     6.543
    25   1 H      0.926     0.053     2.281     2.362
    26   1 H      0.921     0.027     2.626     2.534
    27   8 O      1.654    -0.729    28.251     7.190
    28   1 H      0.807     0.311     0.687     1.302
    29   6 C      3.749    -0.444    34.068     8.424
    30   1 H      0.925     0.126     1.565     1.956
    31   1 H      0.923     0.119     1.619     1.990
    32   1 H      0.925     0.140     1.462     1.891
    33   6 C      3.676     0.008    23.086     6.962
    34   1 H      0.924     0.158     1.336     1.808
    35   1 H      0.927     0.128     1.548     1.946
    36   8 O      2.459    -0.514    22.949     6.484
    37   1 H      0.805     0.226     0.993     1.565
    38   6 C      3.753    -0.510    36.223     8.685
    39   1 H      0.925     0.200     1.096     1.638
    40   1 H      0.924     0.219     1.006     1.569
    41   1 H      0.928     0.218     1.013     1.574
    42   6 C      3.673     0.220    19.419     6.386
    43   1 H      0.928     0.085     1.929     2.172
    44   1 H      0.920     0.033     2.543     2.494
    45   8 O      1.653    -0.653    26.260     6.932
    46   1 H      0.804     0.410     0.466     1.073
    47   6 C      3.752    -0.487    35.432     8.590
    48   1 H      0.927     0.264     0.824     1.419
    49   1 H      0.922     0.226     0.974     1.544
    50   1 H      0.926     0.122     1.597     1.976
    51   6 C      3.671     0.157    20.433     6.552
    52   1 H      0.927     0.048     2.343     2.393
    53   1 H      0.922     0.062     2.179     2.309
    54   8 O      1.654    -0.600    24.974     6.760
    55   1 H      0.807     0.351     0.585     1.201
    56   6 C      3.743    -0.416    33.216     8.320
    57   1 H      0.924     0.156     1.349     1.816
    58   1 H      0.923     0.202     1.088     1.631
    59   1 H      0.920     0.115     1.656     2.013
    60   6 C      3.668     0.117    21.118     6.663
    61   1 H      0.924     0.124     1.579     1.965
    62   1 H      0.917     0.116     1.646     2.007
    63   8 O      1.652    -0.632    25.750     6.864
    64   1 H      0.806     0.438     0.420     1.018
    65   6 C      3.745    -0.420    33.348     8.336
    66   1 H      0.923     0.141     1.456     1.887
    67   1 H      0.926     0.172     1.253     1.750
    68   1 H      0.919     0.102     1.768     2.080
    69   6 C      3.671     0.205    19.661     6.427
    70   1 H      0.919     0.038     2.479     2.462
    71   1 H      0.929     0.031     2.568     2.506
    72   8 O      1.655    -0.722    28.066     7.166
    73   1 H      0.802     0.324     0.653     1.270
    74   6 C      3.735    -0.416    33.238     8.325
    75   1 H      0.922     0.127     1.557     1.951
    76   1 H      0.923     0.113     1.671     2.022
    77   1 H      0.917     0.187     1.166     1.689
    78   6 C      3.667     0.142    20.697     6.596
    79   1 H      0.922     0.084     1.936     2.176
    80   1 H      0.925     0.055     2.254     2.348
    81   8 O      1.654    -0.614    25.314     6.806
    82   1 H      0.806     0.385     0.512     1.124
    83   6 C      3.742    -0.376    32.038     8.172
    84   1 H      0.924     0.136     1.490     1.909
    85   1 H      0.923     0.178     1.220     1.727
    86   1 H      0.919     0.101     1.779     2.086
    87   6 C      3.661     0.227    19.340     6.380
    88   1 H      0.918     0.029     2.599     2.521
    89   1 H      0.921     0.016     2.789     2.612
    90   8 O      1.659    -0.725    28.136     7.175
    91   1 H      0.808     0.465     0.380     0.969
    92   6 C      3.738    -0.398    32.703     8.257
    93   1 H      0.926     0.164     1.304     1.786
    94   1 H      0.925     0.100     1.783     2.088
    95   1 H      0.918     0.138     1.474     1.899
    96   6 C      3.661    -0.015    23.592     7.046
    97   1 H      0.927     0.086     1.914     2.163
    98   1 H      0.910     0.161     1.319     1.797
    99   8 O      2.450    -0.470    22.010     6.350
   100   1 H      0.802     0.255     0.874     1.469
   101   6 C      3.744    -0.390    32.440     8.222
   102   1 H      0.925     0.120     1.612     1.986
   103   1 H      0.918     0.170     1.263     1.758
   104   1 H      0.923     0.113     1.669     2.020
   105   6 C      3.668     0.204    19.679     6.432
   106   1 H      0.913     0.042     2.431     2.439
   107   1 H      0.925     0.048     2.342     2.393
   108   8 O      1.658    -0.712    27.799     7.132
   109   1 H      0.807     0.444     0.411     1.007
   110   6 C      3.750    -0.417    33.241     8.321
   111   1 H      0.919     0.125     1.577     1.964
   112   1 H      0.927     0.187     1.165     1.688
   113   1 H      0.925     0.140     1.460     1.889
   114   6 C      3.669     0.210    19.587     6.416
   115   1 H      0.923     0.063     2.159     2.298
   116   1 H      0.925     0.061     2.192     2.315
   117   8 O      1.649    -0.684    27.059     7.036
   118   1 H      0.807     0.411     0.464     1.069
   119   6 C      3.757    -0.504    35.988     8.656
   120   1 H      0.921     0.143     1.443     1.879
   121   1 H      0.928     0.129     1.543     1.942
   122   1 H      0.928     0.210     1.050     1.603
   123   6 C      3.670     0.168    20.246     6.523
   124   1 H      0.925     0.043     2.406     2.426
   125   1 H      0.918     0.064     2.149     2.293
   126   8 O      1.659    -0.625    25.573     6.841
   127   1 H      0.807     0.400     0.484     1.092
   128   6 C      3.738    -0.415    33.222     8.323
   129   1 H      0.924     0.126     1.570     1.959
   130   1 H      0.918     0.104     1.748     2.068
   131   1 H      0.920     0.166     1.291     1.777
   132   6 C      3.668     0.173    20.184     6.514
   133   1 H      0.924     0.050     2.315     2.379
   134   1 H      0.925     0.068     2.103     2.268
   135   8 O      1.648    -0.663    26.525     6.966
   136   1 H      0.804     0.377     0.528     1.142
   137   6 C      3.739    -0.396    32.634     8.248
   138   1 H      0.914     0.122     1.600     1.978
   139   1 H      0.925     0.201     1.094     1.636
   140   1 H      0.924     0.160     1.328     1.802
   141   6 C      3.666     0.217    19.486     6.401
   142   1 H      0.925     0.035     2.519     2.482
   143   1 H      0.920     0.035     2.516     2.481
   144   8 O      1.636    -0.727    28.197     7.182
   145   1 H      0.790     0.421     0.449     1.054
   146   6 C      3.743    -0.461    34.617     8.494
   147   1 H      0.923     0.203     1.083     1.628
   148   1 H      0.927     0.146     1.418     1.862
   149   1 H      0.918     0.142     1.447     1.881
   150   6 C      3.676     0.176    20.105     6.497
   151   1 H      0.925     0.074     2.038     2.233
   152   1 H      0.924     0.035     2.519     2.482
   153   8 O      1.648    -0.697    27.401     7.081
   154   1 H      0.795     0.423     0.446     1.049
   155   6 C      3.762    -0.505    36.014     8.658
   156   1 H      0.928     0.138     1.473     1.898
   157   1 H      0.928     0.140     1.461     1.890
   158   1 H      0.928     0.177     1.220     1.727
   159   6 C      3.675     0.209    19.579     6.412
   160   1 H      0.925     0.045     2.382     2.414
   161   1 H      0.923     0.029     2.602     2.522
   162   8 O      1.605    -0.642    26.031     6.899
   163   1 H      0.789     0.416     0.457     1.063
   164   6 C      3.748    -0.457    34.496     8.477
   165   1 H      0.924     0.131     1.525     1.931
   166   1 H      0.928     0.120     1.614     1.987
   167   1 H      0.919     0.124     1.580     1.966
   168   6 C      3.667     0.220    19.431     6.392
   169   1 H      0.925     0.076     2.025     2.225
   170   1 H      0.919     0.031     2.576     2.510
   171   8 O      1.661    -0.656    26.336     6.942
   172   1 H      0.807     0.353     0.581     1.197
   173   6 C      3.749    -0.434    33.766     8.387
   174   1 H      0.926     0.165     1.296     1.780
   175   1 H      0.925     0.135     1.500     1.915
   176   1 H      0.927     0.120     1.617     1.988
   177   6 C      3.665     0.217    19.487     6.402
   178   1 H      0.920     0.032     2.561     2.503
   179   1 H      0.923     0.063     2.164     2.301
   180   8 O      1.655    -0.599    24.954     6.757
   181   1 H      0.807     0.346     0.596     1.213
   182   6 C      3.752    -0.432    33.703     8.378
   183   1 H      0.925     0.163     1.305     1.787
   184   1 H      0.923     0.108     1.718     2.050
   185   1 H      0.928     0.150     1.389     1.843
   186   6 C      3.664     0.159    20.421     6.554
   187   1 H      0.920     0.075     2.029     2.228
   188   1 H      0.925     0.046     2.369     2.407
   189   8 O      1.652    -0.663    26.526     6.967
   190   1 H      0.805     0.408     0.471     1.078
   191   6 C      3.745    -0.444    34.096     8.429
   192   1 H      0.925     0.176     1.230     1.734
   193   1 H      0.923     0.176     1.230     1.734
   194   1 H      0.922     0.127     1.559     1.953
   195   6 C      3.672     0.226    19.322     6.371
   196   1 H      0.919     0.098     1.801     2.099
   197   1 H      0.924     0.017     2.782     2.608
   198   8 O      1.657    -0.673    26.767     6.998
   199   1 H      0.806     0.314     0.679     1.294
   200   6 C      3.727    -0.474    35.068     8.555
   201   1 H      0.926     0.205     1.073     1.620
   202   1 H      0.928     0.233     0.945     1.520
   203   1 H      0.895     0.175     1.240     1.743
   204   6 C      3.671     0.061    22.097     6.814
   205   1 H      0.927     0